# vtk DataFile Version 1.0
Bar_TO_3D
ASCII
DATASET UNSTRUCTURED_GRID
POINTS 6348 float 
-5.0 -5.0 50.0
-5.0 5.0 50.0
-5.0 5.0 0.0
-5.0 -5.0 0.0
5.0 5.0 50.0
5.0 5.0 0.0
5.0 -5.0 0.0
5.0 -5.0 50.0
-5.0 -4.0 50.0
-5.0 -3.0 50.0
-5.0 -2.0 50.0
-5.0 -1.0 50.0
-5.0 0.0 50.0
-5.0 1.0 50.0
-5.0 2.0 50.0
-5.0 3.0 50.0
-5.0 4.0 50.0
-5.0 5.0 49.0
-5.0 5.0 48.0
-5.0 5.0 47.0
-5.0 5.0 46.0
-5.0 5.0 45.0
-5.0 5.0 44.0
-5.0 5.0 43.0
-5.0 5.0 42.0
-5.0 5.0 41.0
-5.0 5.0 40.0
-5.0 5.0 39.0
-5.0 5.0 38.0
-5.0 5.0 37.0
-5.0 5.0 36.0
-5.0 5.0 35.0
-5.0 5.0 34.0
-5.0 5.0 33.0
-5.0 5.0 32.0
-5.0 5.0 31.0
-5.0 5.0 30.0
-5.0 5.0 29.0
-5.0 5.0 28.0
-5.0 5.0 27.0
-5.0 5.0 26.0
-5.0 5.0 25.0
-5.0 5.0 24.0
-5.0 5.0 23.0
-5.0 5.0 22.0
-5.0 5.0 21.0
-5.0 5.0 20.0
-5.0 5.0 19.0
-5.0 5.0 18.0
-5.0 5.0 17.0
-5.0 5.0 16.0
-5.0 5.0 15.0
-5.0 5.0 14.0
-5.0 5.0 13.0
-5.0 5.0 12.0
-5.0 5.0 11.0
-5.0 5.0 10.0
-5.0 5.0 9.0
-5.0 5.0 8.0
-5.0 5.0 7.0
-5.0 5.0 6.0
-5.0 5.0 5.0
-5.0 5.0 4.0
-5.0 5.0 3.0
-5.0 5.0 2.0
-5.0 5.0 1.0
-5.0 4.0 0.0
-5.0 3.0 0.0
-5.0 2.0 0.0
-5.0 1.0 0.0
-5.0 0.0 0.0
-5.0 -1.0 0.0
-5.0 -2.0 0.0
-5.0 -3.0 0.0
-5.0 -4.0 0.0
-5.0 -5.0 1.0
-5.0 -5.0 2.0
-5.0 -5.0 3.0
-5.0 -5.0 4.0
-5.0 -5.0 5.0
-5.0 -5.0 6.0
-5.0 -5.0 7.0
-5.0 -5.0 8.0
-5.0 -5.0 9.0
-5.0 -5.0 10.0
-5.0 -5.0 11.0
-5.0 -5.0 12.0
-5.0 -5.0 13.0
-5.0 -5.0 14.0
-5.0 -5.0 15.0
-5.0 -5.0 16.0
-5.0 -5.0 17.0
-5.0 -5.0 18.0
-5.0 -5.0 19.0
-5.0 -5.0 20.0
-5.0 -5.0 21.0
-5.0 -5.0 22.0
-5.0 -5.0 23.0
-5.0 -5.0 24.0
-5.0 -5.0 25.0
-5.0 -5.0 26.0
-5.0 -5.0 27.0
-5.0 -5.0 28.0
-5.0 -5.0 29.0
-5.0 -5.0 30.0
-5.0 -5.0 31.0
-5.0 -5.0 32.0
-5.0 -5.0 33.0
-5.0 -5.0 34.0
-5.0 -5.0 35.0
-5.0 -5.0 36.0
-5.0 -5.0 37.0
-5.0 -5.0 38.0
-5.0 -5.0 39.0
-5.0 -5.0 40.0
-5.0 -5.0 41.0
-5.0 -5.0 42.0
-5.0 -5.0 43.0
-5.0 -5.0 44.0
-5.0 -5.0 45.0
-5.0 -5.0 46.0
-5.0 -5.0 47.0
-5.0 -5.0 48.0
-5.0 -5.0 49.0
-4.0 5.0 50.0
-3.0 5.0 50.0
-2.0 5.0 50.0
-1.0 5.0 50.0
0.0 5.0 50.0
1.0 5.0 50.0
2.0 5.0 50.0
3.0 5.0 50.0
4.0 5.0 50.0
5.0 5.0 49.0
5.0 5.0 48.0
5.0 5.0 47.0
5.0 5.0 46.0
5.0 5.0 45.0
5.0 5.0 44.0
5.0 5.0 43.0
5.0 5.0 42.0
5.0 5.0 41.0
5.0 5.0 40.0
5.0 5.0 39.0
5.0 5.0 38.0
5.0 5.0 37.0
5.0 5.0 36.0
5.0 5.0 35.0
5.0 5.0 34.0
5.0 5.0 33.0
5.0 5.0 32.0
5.0 5.0 31.0
5.0 5.0 30.0
5.0 5.0 29.0
5.0 5.0 28.0
5.0 5.0 27.0
5.0 5.0 26.0
5.0 5.0 25.0
5.0 5.0 24.0
5.0 5.0 23.0
5.0 5.0 22.0
5.0 5.0 21.0
5.0 5.0 20.0
5.0 5.0 19.0
5.0 5.0 18.0
5.0 5.0 17.0
5.0 5.0 16.0
5.0 5.0 15.0
5.0 5.0 14.0
5.0 5.0 13.0
5.0 5.0 12.0
5.0 5.0 11.0
5.0 5.0 10.0
5.0 5.0 9.0
5.0 5.0 8.0
5.0 5.0 7.0
5.0 5.0 6.0
5.0 5.0 5.0
5.0 5.0 4.0
5.0 5.0 3.0
5.0 5.0 2.0
5.0 5.0 1.0
4.0 5.0 0.0
3.0 5.0 0.0
2.0 5.0 0.0
1.0 5.0 0.0
0.0 5.0 0.0
-1.0 5.0 0.0
-2.0 5.0 0.0
-3.0 5.0 0.0
-4.0 5.0 0.0
5.0 4.0 0.0
5.0 3.0 0.0
5.0 2.0 0.0
5.0 1.0 0.0
5.0 0.0 0.0
5.0 -1.0 0.0
5.0 -2.0 0.0
5.0 -3.0 0.0
5.0 -4.0 0.0
4.0 -5.0 0.0
3.0 -5.0 0.0
2.0 -5.0 0.0
1.0 -5.0 0.0
0.0 -5.0 0.0
-1.0 -5.0 0.0
-2.0 -5.0 0.0
-3.0 -5.0 0.0
-4.0 -5.0 0.0
4.0 -5.0 50.0
3.0 -5.0 50.0
2.0 -5.0 50.0
1.0 -5.0 50.0
0.0 -5.0 50.0
-1.0 -5.0 50.0
-2.0 -5.0 50.0
-3.0 -5.0 50.0
-4.0 -5.0 50.0
5.0 -5.0 1.0
5.0 -5.0 2.0
5.0 -5.0 3.0
5.0 -5.0 4.0
5.0 -5.0 5.0
5.0 -5.0 6.0
5.0 -5.0 7.0
5.0 -5.0 8.0
5.0 -5.0 9.0
5.0 -5.0 10.0
5.0 -5.0 11.0
5.0 -5.0 12.0
5.0 -5.0 13.0
5.0 -5.0 14.0
5.0 -5.0 15.0
5.0 -5.0 16.0
5.0 -5.0 17.0
5.0 -5.0 18.0
5.0 -5.0 19.0
5.0 -5.0 20.0
5.0 -5.0 21.0
5.0 -5.0 22.0
5.0 -5.0 23.0
5.0 -5.0 24.0
5.0 -5.0 25.0
5.0 -5.0 26.0
5.0 -5.0 27.0
5.0 -5.0 28.0
5.0 -5.0 29.0
5.0 -5.0 30.0
5.0 -5.0 31.0
5.0 -5.0 32.0
5.0 -5.0 33.0
5.0 -5.0 34.0
5.0 -5.0 35.0
5.0 -5.0 36.0
5.0 -5.0 37.0
5.0 -5.0 38.0
5.0 -5.0 39.0
5.0 -5.0 40.0
5.0 -5.0 41.0
5.0 -5.0 42.0
5.0 -5.0 43.0
5.0 -5.0 44.0
5.0 -5.0 45.0
5.0 -5.0 46.0
5.0 -5.0 47.0
5.0 -5.0 48.0
5.0 -5.0 49.0
5.0 -4.0 50.0
5.0 -3.0 50.0
5.0 -2.0 50.0
5.0 -1.0 50.0
5.0 0.0 50.0
5.0 1.0 50.0
5.0 2.0 50.0
5.0 3.0 50.0
5.0 4.0 50.0
-5.0 -4.0 49.0
-5.0 -3.0 49.0
-5.0 -2.0 49.0
-5.0 -1.0 49.0
-5.0 0.0 49.0
-5.0 1.0 49.0
-5.0 2.0 49.0
-5.0 3.0 49.0
-5.0 4.0 49.0
-5.0 -4.0 48.0
-5.0 -3.0 48.0
-5.0 -2.0 48.0
-5.0 -1.0 48.0
-5.0 0.0 48.0
-5.0 1.0 48.0
-5.0 2.0 48.0
-5.0 3.0 48.0
-5.0 4.0 48.0
-5.0 -4.0 47.0
-5.0 -3.0 47.0
-5.0 -2.0 47.0
-5.0 -1.0 47.0
-5.0 0.0 47.0
-5.0 1.0 47.0
-5.0 2.0 47.0
-5.0 3.0 47.0
-5.0 4.0 47.0
-5.0 -4.0 46.0
-5.0 -3.0 46.0
-5.0 -2.0 46.0
-5.0 -1.0 46.0
-5.0 0.0 46.0
-5.0 1.0 46.0
-5.0 2.0 46.0
-5.0 3.0 46.0
-5.0 4.0 46.0
-5.0 -4.0 45.0
-5.0 -3.0 45.0
-5.0 -2.0 45.0
-5.0 -1.0 45.0
-5.0 0.0 45.0
-5.0 1.0 45.0
-5.0 2.0 45.0
-5.0 3.0 45.0
-5.0 4.0 45.0
-5.0 -4.0 44.0
-5.0 -3.0 44.0
-5.0 -2.0 44.0
-5.0 -1.0 44.0
-5.0 0.0 44.0
-5.0 1.0 44.0
-5.0 2.0 44.0
-5.0 3.0 44.0
-5.0 4.0 44.0
-5.0 -4.0 43.0
-5.0 -3.0 43.0
-5.0 -2.0 43.0
-5.0 -1.0 43.0
-5.0 0.0 43.0
-5.0 1.0 43.0
-5.0 2.0 43.0
-5.0 3.0 43.0
-5.0 4.0 43.0
-5.0 -4.0 42.0
-5.0 -3.0 42.0
-5.0 -2.0 42.0
-5.0 -1.0 42.0
-5.0 0.0 42.0
-5.0 1.0 42.0
-5.0 2.0 42.0
-5.0 3.0 42.0
-5.0 4.0 42.0
-5.0 -4.0 41.0
-5.0 -3.0 41.0
-5.0 -2.0 41.0
-5.0 -1.0 41.0
-5.0 0.0 41.0
-5.0 1.0 41.0
-5.0 2.0 41.0
-5.0 3.0 41.0
-5.0 4.0 41.0
-5.0 -4.0 40.0
-5.0 -3.0 40.0
-5.0 -2.0 40.0
-5.0 -1.0 40.0
-5.0 0.0 40.0
-5.0 1.0 40.0
-5.0 2.0 40.0
-5.0 3.0 40.0
-5.0 4.0 40.0
-5.0 -4.0 39.0
-5.0 -3.0 39.0
-5.0 -2.0 39.0
-5.0 -1.0 39.0
-5.0 0.0 39.0
-5.0 1.0 39.0
-5.0 2.0 39.0
-5.0 3.0 39.0
-5.0 4.0 39.0
-5.0 -4.0 38.0
-5.0 -3.0 38.0
-5.0 -2.0 38.0
-5.0 -1.0 38.0
-5.0 0.0 38.0
-5.0 1.0 38.0
-5.0 2.0 38.0
-5.0 3.0 38.0
-5.0 4.0 38.0
-5.0 -4.0 37.0
-5.0 -3.0 37.0
-5.0 -2.0 37.0
-5.0 -1.0 37.0
-5.0 0.0 37.0
-5.0 1.0 37.0
-5.0 2.0 37.0
-5.0 3.0 37.0
-5.0 4.0 37.0
-5.0 -4.0 36.0
-5.0 -3.0 36.0
-5.0 -2.0 36.0
-5.0 -1.0 36.0
-5.0 0.0 36.0
-5.0 1.0 36.0
-5.0 2.0 36.0
-5.0 3.0 36.0
-5.0 4.0 36.0
-5.0 -4.0 35.0
-5.0 -3.0 35.0
-5.0 -2.0 35.0
-5.0 -1.0 35.0
-5.0 0.0 35.0
-5.0 1.0 35.0
-5.0 2.0 35.0
-5.0 3.0 35.0
-5.0 4.0 35.0
-5.0 -4.0 34.0
-5.0 -3.0 34.0
-5.0 -2.0 34.0
-5.0 -1.0 34.0
-5.0 0.0 34.0
-5.0 1.0 34.0
-5.0 2.0 34.0
-5.0 3.0 34.0
-5.0 4.0 34.0
-5.0 -4.0 33.0
-5.0 -3.0 33.0
-5.0 -2.0 33.0
-5.0 -1.0 33.0
-5.0 0.0 33.0
-5.0 1.0 33.0
-5.0 2.0 33.0
-5.0 3.0 33.0
-5.0 4.0 33.0
-5.0 -4.0 32.0
-5.0 -3.0 32.0
-5.0 -2.0 32.0
-5.0 -1.0 32.0
-5.0 0.0 32.0
-5.0 1.0 32.0
-5.0 2.0 32.0
-5.0 3.0 32.0
-5.0 4.0 32.0
-5.0 -4.0 31.0
-5.0 -3.0 31.0
-5.0 -2.0 31.0
-5.0 -1.0 31.0
-5.0 0.0 31.0
-5.0 1.0 31.0
-5.0 2.0 31.0
-5.0 3.0 31.0
-5.0 4.0 31.0
-5.0 -4.0 30.0
-5.0 -3.0 30.0
-5.0 -2.0 30.0
-5.0 -1.0 30.0
-5.0 0.0 30.0
-5.0 1.0 30.0
-5.0 2.0 30.0
-5.0 3.0 30.0
-5.0 4.0 30.0
-5.0 -4.0 29.0
-5.0 -3.0 29.0
-5.0 -2.0 29.0
-5.0 -1.0 29.0
-5.0 0.0 29.0
-5.0 1.0 29.0
-5.0 2.0 29.0
-5.0 3.0 29.0
-5.0 4.0 29.0
-5.0 -4.0 28.0
-5.0 -3.0 28.0
-5.0 -2.0 28.0
-5.0 -1.0 28.0
-5.0 0.0 28.0
-5.0 1.0 28.0
-5.0 2.0 28.0
-5.0 3.0 28.0
-5.0 4.0 28.0
-5.0 -4.0 27.0
-5.0 -3.0 27.0
-5.0 -2.0 27.0
-5.0 -1.0 27.0
-5.0 0.0 27.0
-5.0 1.0 27.0
-5.0 2.0 27.0
-5.0 3.0 27.0
-5.0 4.0 27.0
-5.0 -4.0 26.0
-5.0 -3.0 26.0
-5.0 -2.0 26.0
-5.0 -1.0 26.0
-5.0 0.0 26.0
-5.0 1.0 26.0
-5.0 2.0 26.0
-5.0 3.0 26.0
-5.0 4.0 26.0
-5.0 -4.0 25.0
-5.0 -3.0 25.0
-5.0 -2.0 25.0
-5.0 -1.0 25.0
-5.0 0.0 25.0
-5.0 1.0 25.0
-5.0 2.0 25.0
-5.0 3.0 25.0
-5.0 4.0 25.0
-5.0 -4.0 24.0
-5.0 -3.0 24.0
-5.0 -2.0 24.0
-5.0 -1.0 24.0
-5.0 0.0 24.0
-5.0 1.0 24.0
-5.0 2.0 24.0
-5.0 3.0 24.0
-5.0 4.0 24.0
-5.0 -4.0 23.0
-5.0 -3.0 23.0
-5.0 -2.0 23.0
-5.0 -1.0 23.0
-5.0 0.0 23.0
-5.0 1.0 23.0
-5.0 2.0 23.0
-5.0 3.0 23.0
-5.0 4.0 23.0
-5.0 -4.0 22.0
-5.0 -3.0 22.0
-5.0 -2.0 22.0
-5.0 -1.0 22.0
-5.0 0.0 22.0
-5.0 1.0 22.0
-5.0 2.0 22.0
-5.0 3.0 22.0
-5.0 4.0 22.0
-5.0 -4.0 21.0
-5.0 -3.0 21.0
-5.0 -2.0 21.0
-5.0 -1.0 21.0
-5.0 0.0 21.0
-5.0 1.0 21.0
-5.0 2.0 21.0
-5.0 3.0 21.0
-5.0 4.0 21.0
-5.0 -4.0 20.0
-5.0 -3.0 20.0
-5.0 -2.0 20.0
-5.0 -1.0 20.0
-5.0 0.0 20.0
-5.0 1.0 20.0
-5.0 2.0 20.0
-5.0 3.0 20.0
-5.0 4.0 20.0
-5.0 -4.0 19.0
-5.0 -3.0 19.0
-5.0 -2.0 19.0
-5.0 -1.0 19.0
-5.0 0.0 19.0
-5.0 1.0 19.0
-5.0 2.0 19.0
-5.0 3.0 19.0
-5.0 4.0 19.0
-5.0 -4.0 18.0
-5.0 -3.0 18.0
-5.0 -2.0 18.0
-5.0 -1.0 18.0
-5.0 0.0 18.0
-5.0 1.0 18.0
-5.0 2.0 18.0
-5.0 3.0 18.0
-5.0 4.0 18.0
-5.0 -4.0 17.0
-5.0 -3.0 17.0
-5.0 -2.0 17.0
-5.0 -1.0 17.0
-5.0 0.0 17.0
-5.0 1.0 17.0
-5.0 2.0 17.0
-5.0 3.0 17.0
-5.0 4.0 17.0
-5.0 -4.0 16.0
-5.0 -3.0 16.0
-5.0 -2.0 16.0
-5.0 -1.0 16.0
-5.0 0.0 16.0
-5.0 1.0 16.0
-5.0 2.0 16.0
-5.0 3.0 16.0
-5.0 4.0 16.0
-5.0 -4.0 15.0
-5.0 -3.0 15.0
-5.0 -2.0 15.0
-5.0 -1.0 15.0
-5.0 0.0 15.0
-5.0 1.0 15.0
-5.0 2.0 15.0
-5.0 3.0 15.0
-5.0 4.0 15.0
-5.0 -4.0 14.0
-5.0 -3.0 14.0
-5.0 -2.0 14.0
-5.0 -1.0 14.0
-5.0 0.0 14.0
-5.0 1.0 14.0
-5.0 2.0 14.0
-5.0 3.0 14.0
-5.0 4.0 14.0
-5.0 -4.0 13.0
-5.0 -3.0 13.0
-5.0 -2.0 13.0
-5.0 -1.0 13.0
-5.0 0.0 13.0
-5.0 1.0 13.0
-5.0 2.0 13.0
-5.0 3.0 13.0
-5.0 4.0 13.0
-5.0 -4.0 12.0
-5.0 -3.0 12.0
-5.0 -2.0 12.0
-5.0 -1.0 12.0
-5.0 0.0 12.0
-5.0 1.0 12.0
-5.0 2.0 12.0
-5.0 3.0 12.0
-5.0 4.0 12.0
-5.0 -4.0 11.0
-5.0 -3.0 11.0
-5.0 -2.0 11.0
-5.0 -1.0 11.0
-5.0 0.0 11.0
-5.0 1.0 11.0
-5.0 2.0 11.0
-5.0 3.0 11.0
-5.0 4.0 11.0
-5.0 -4.0 10.0
-5.0 -3.0 10.0
-5.0 -2.0 10.0
-5.0 -1.0 10.0
-5.0 0.0 10.0
-5.0 1.0 10.0
-5.0 2.0 10.0
-5.0 3.0 10.0
-5.0 4.0 10.0
-5.0 -4.0 9.0
-5.0 -3.0 9.0
-5.0 -2.0 9.0
-5.0 -1.0 9.0
-5.0 0.0 9.0
-5.0 1.0 9.0
-5.0 2.0 9.0
-5.0 3.0 9.0
-5.0 4.0 9.0
-5.0 -4.0 8.0
-5.0 -3.0 8.0
-5.0 -2.0 8.0
-5.0 -1.0 8.0
-5.0 0.0 8.0
-5.0 1.0 8.0
-5.0 2.0 8.0
-5.0 3.0 8.0
-5.0 4.0 8.0
-5.0 -4.0 7.0
-5.0 -3.0 7.0
-5.0 -2.0 7.0
-5.0 -1.0 7.0
-5.0 0.0 7.0
-5.0 1.0 7.0
-5.0 2.0 7.0
-5.0 3.0 7.0
-5.0 4.0 7.0
-5.0 -4.0 6.0
-5.0 -3.0 6.0
-5.0 -2.0 6.0
-5.0 -1.0 6.0
-5.0 0.0 6.0
-5.0 1.0 6.0
-5.0 2.0 6.0
-5.0 3.0 6.0
-5.0 4.0 6.0
-5.0 -4.0 5.0
-5.0 -3.0 5.0
-5.0 -2.0 5.0
-5.0 -1.0 5.0
-5.0 0.0 5.0
-5.0 1.0 5.0
-5.0 2.0 5.0
-5.0 3.0 5.0
-5.0 4.0 5.0
-5.0 -4.0 4.0
-5.0 -3.0 4.0
-5.0 -2.0 4.0
-5.0 -1.0 4.0
-5.0 0.0 4.0
-5.0 1.0 4.0
-5.0 2.0 4.0
-5.0 3.0 4.0
-5.0 4.0 4.0
-5.0 -4.0 3.0
-5.0 -3.0 3.0
-5.0 -2.0 3.0
-5.0 -1.0 3.0
-5.0 0.0 3.0
-5.0 1.0 3.0
-5.0 2.0 3.0
-5.0 3.0 3.0
-5.0 4.0 3.0
-5.0 -4.0 2.0
-5.0 -3.0 2.0
-5.0 -2.0 2.0
-5.0 -1.0 2.0
-5.0 0.0 2.0
[...]
CELL_DATA 31305 
FIELD FieldData  2
density 1 31305 float
0.060091639314434946
0.054033137421854976
0.2112557120148097
0.12719984615106109
0.1630397824910702
0.17774538404440307
0.17322289020415169
0.22778311387253225
0.15266459738095053
0.1454867211666166
0.25557690595330285
0.2080174133634077
0.14137539472756133
0.2991741363842837
0.11425612850425239
0.1148819753169602
0.020009138028942094
0.03828325831541731
0.12012539120664945
0.10007146101384062
0.13402410035397155
0.0405650294868227
0.09142689664677794
0.07627650249177612
0.27684709670023927
0.04738547410023341
0.05524130179592292
0.42641123517433
0.16982987268516808
0.41009117144994983
0.37916617717717466
0.033102630481269955
0.020389070710137343
0.038988199472121114
0.02555877257640232
0.038488648205304024
0.0324206202007921
0.11370571319793472
0.08496364825611584
0.09891416513714961
0.09090929644685904
0.09291498963354843
0.08855748819863224
0.07486485991945756
0.1689404903890357
0.08404984821506002
0.1251810839979359
0.11697575347396429
0.13255280963712102
0.16284587959215038
0.202745241183703
0.1449259113852226
0.029025626796506547
0.049091722622530296
0.28875400527867356
0.024522988218983847
0.22904596182703627
0.102405942828614
0.210474146764962
0.11925089658525498
0.2506511339297382
0.13977548319401895
0.1626278854063538
0.15531017741820374
0.11561176127566254
0.18118746105023723
0.1585186929879439
0.16664620177630834
0.16986792126991718
0.15114903200941446
0.05945989714644773
0.02694392138222196
0.1635987946201165
0.04500067415413895
0.13918242031852918
0.20859946390460082
0.08015815291163458
0.07508702730082056
0.2664731209918439
0.30170737623317534
0.3101362416461524
0.3153325202786511
0.13408905212057873
0.1520042996801622
0.17331184682297412
0.13601139394179548
0.10869765177155319
0.12926743347761704
0.1500739166631167
0.1253230096097758
0.12053172000086101
0.13528494265557287
0.10090669388644039
0.11098287225817759
0.11544284535227525
0.10583222824630786
0.10569586713170498
0.10479625204656459
0.1604216591006897
0.19508514040610078
0.1972179636390199
0.11898163103184813
0.2384972535463189
0.20982388340945632
0.22871504557701267
0.20922104534730165
0.18325674434424136
0.11868222862808077
0.24221214071614627
0.3248086430117427
0.10839140682121703
0.0605080248772337
0.17466806080599048
0.1058950593465663
0.10837210918669003
0.1014052506428243
0.11205239743758329
0.4456429461188001
0.2881261585364389
0.14613109058524437
0.3490680844992821
0.29085734527701146
0.46915946515519963
0.3680880409145354
0.2913441576014677
0.1618645980316453
0.13167986211983013
0.22964470328700104
0.09634648817840084
0.21534324957509715
0.16878530462524374
0.16992336839901845
0.09832022775356472
0.11395411994228119
0.04792670369302135
0.046593165092123905
0.04641208486528812
0.034604479159158666
0.03477249167488381
0.04344401222262613
0.13495553716175007
0.051451265633940015
0.08473971868785589
0.09353399346966854
0.09172388962716478
0.03637514569726705
0.025661404735487996
0.054540062448640125
0.04413702174945328
0.02683845533985349
0.03582855666746951
0.28658128459673465
0.22944846146583442
0.14590800158168463
0.022502623513070565
0.07652287955167124
0.058931730570512326
0.011463511424025553
0.06346181859102462
0.06012961936479529
0.06685072992104357
0.42813021240649735
0.3013517533384005
0.04138238816637972
0.0370312569530886
0.024126285890907002
0.04184038484394368
0.036734499896808326
0.027679745309301784
0.019112895638199
0.09338473962855236
0.11947196053275252
0.13348702361103276
0.12347441852546154
0.04160314610438839
0.11482168653604402
0.07783446840294303
0.14372127523188263
0.11481478499515221
0.14346259575344733
0.12204916162316795
0.08363648192928609
0.09045780721743704
0.07559655565132119
0.1696121346732671
0.2707820344632174
0.33784219395813475
0.31136063272852416
0.09788136398606466
0.19125399294789466
0.05633561150524293
0.054116023784691464
0.05291810071414343
0.034359384792525885
0.032735728285933366
0.050660985086679634
0.045001125290401386
0.02720046138142923
0.028361160787228723
0.034650152034761024
0.03990886275524817
0.035770972148240675
0.03183589882539345
0.16503642781735556
0.028969374233811702
0.49549284970496016
0.13022696841724743
0.24447501161899046
0.24695135263482276
0.30992993620709597
0.3470077225296427
0.12204848194613287
0.08359781164817716
0.06881562824852144
0.05919196949713133
0.029761198474227195
0.07109663689904165
0.1378908676551706
0.24935303391226207
0.3832999829900622
0.036160781069429014
0.045858258762514724
0.03977353075791278
0.022980659811004025
0.04561194469621817
0.1175459680534444
0.08161065384960398
0.3573531295799115
0.08366374013389483
0.14036025476268282
0.11338794649426455
0.04011582554442151
0.05333488916799917
0.08456982597651697
0.11238387906414404
0.10551245512220477
0.0674514517404692
0.00958897917554722
0.03211621464250531
0.0513182889128491
0.043755346177182804
0.030831873941564395
0.030465436374090014
0.05488616124281516
0.020716506271277427
0.032842572358609524
0.1992199676834903
0.24177695936513227
0.23402920390553822
0.0380277412583479
0.04007775815478961
0.028511721676762646
0.35871364949936724
0.004103784070901631
0.01546034515803547
0.03199448380660026
0.015800568260298454
0.0197636373654506
0.007423789856958213
0.14384670744775496
0.10447715920943998
0.14329308006468733
0.14919344165724685
0.21176741681724098
0.1342282037897123
0.13261607807104725
0.1479810039877362
0.18549778604172198
0.1680524264240981
0.05842112740512597
0.02200685384632458
0.03352836534346182
0.03626967242051083
0.04204001597301931
0.11668663129442286
0.029500588783261776
0.019805734097283638
0.0443328092898183
0.046928463130115915
0.052570759959264565
0.028965962328806497
0.1042909316536878
0.07981504864869855
0.07521113431824253
0.06506892499095075
0.07567060987977893
0.06421298895895804
0.11147177772927996
0.24274416351167394
0.06780703931489616
0.05956973544497597
0.16456847727436666
0.19862889215989057
0.16928252277787942
0.2485763455960212
0.18124882808138656
0.15649472052785215
0.11965425760987801
0.14150989415194576
0.16982719575100633
0.14003541770912675
0.4726075240022833
0.4067732424558226
0.5477519601309392
0.43005283544040157
0.475252144040688
0.591217013077021
0.5917198683197893
0.17174692077199635
0.3134494737904426
0.1736322143105234
0.12860788639922474
0.11138647185032945
0.2201200599454781
0.17345655860985668
0.13073655130862583
0.0560953935597279
0.07901346795925714
0.1799924268800861
0.07692674286484011
0.10750986447959773
0.07863591231758832
0.07070729683144195
0.0946076123040217
0.10002347127935715
0.027504111264985337
0.03651165245505631
0.04630986013961657
0.01923450140821666
0.01637019381504415
0.018023745930587184
0.026670057107987748
0.28368135827421537
0.3265053908751175
0.24414393530941367
0.17311369098156418
0.27862677333809155
0.15273722771805784
0.14698458630360978
0.32112200787772716
0.15424260173690962
0.21459819343639477
0.06874896462153293
0.16746159575102823
0.16760238722074713
0.19737437012949624
0.08508142152041856
0.017041426714368698
0.06929955214971929
0.09822936107423878
0.0694896594512488
0.08292796175496478
0.17096880301578415
0.08034229999424172
0.006741463131796336
0.034065868283697565
0.14181764841921374
0.13244048101276656
0.1254691312364584
0.028472144099741963
0.054109273949567806
0.06758255678333813
0.04317252343751807
0.04361631736603818
0.018182103405420626
0.3625379561143393
0.05988192826978139
0.07011701555473368
0.07062522294611187
0.11328341110171855
0.0505879282891066
0.21784221892259706
0.07845733560352611
0.225368369374759
0.19395050365539274
0.12187596452755585
0.12277637195703191
0.14043557011799587
0.09510333594014458
0.10143064922582987
0.11249945713621337
0.04907140376715027
0.04111874205305213
0.04718512294567136
0.056902666774794906
0.1933431292087291
0.1167662119781413
0.19501712587978504
0.24927989771425868
0.295925911340444
0.25980041821455213
0.02293619986873954
0.1487266515309585
0.08615307245705306
0.06138217385375266
0.07534956620597755
0.0583222450818159
0.03963984566553489
0.020228297143858848
0.16718975386012214
0.17845676076361489
0.161618634336664
0.1572934885167535
0.09918600154341249
0.11345042170866562
0.12535407046547872
0.032297524354680064
0.05151890840169906
0.04871050103485769
0.04567156706748068
0.06536209894779725
0.04002477952066037
0.07762900549241186
0.08262384426793347
0.06959311432514985
0.2945257693728491
0.30573427301847833
0.3293791275685581
0.1225211367040677
0.06105060221749536
0.042829470291455896
0.05236083211364061
0.032426068570827284
0.08251865109256674
0.11100935204092274
0.2972457977287628
0.08993908773580964
0.14887904896036497
0.2263700657611388
0.13258755598989816
0.12517111269087416
0.13433894476774264
0.15123315104778126
0.12455104285455484
0.07406514432706754
0.07727675323395862
0.10165665888610301
0.039928224372188174
0.05063162629282852
0.08722731228257306
0.0857651156111999
0.09006575388414087
0.08875928459151967
0.08986202103434739
0.1385806903692445
0.13618036905157013
0.13312901901576601
0.0976006936213377
0.12936564700159037
0.1261223188736535
0.006631006917315974
0.015459086968748946
0.03423104333425319
0.025317007045056846
0.01146795645487958
0.02011125538599096
0.07451635295809411
0.19190574718365597
0.27993226117313846
0.28461238530450084
0.26600006044723784
0.05927251169770456
0.15923658452071607
0.11216225274785989
0.14497824849195304
0.1367072293775208
0.08185517764634885
0.07870615891273662
0.14268890734957188
0.11190978119989545
0.1074831637426467
0.07053119864623571
0.12478617762004059
0.25538261968041975
0.031108530437643483
0.1375082412305831
0.3159845601242356
0.1913537383851706
0.23031667427825706
0.22151169668265447
0.17424363663312542
0.09416784334528756
0.05246256393174846
0.08633112949840269
0.0722493715385969
0.05172039556834594
0.07924181094353229
0.08368794308924779
0.0796508629941838
0.100057111029644
0.17897840592606823
0.11022619573681425
0.06955812670367757
0.171720994973629
0.1345548201682025
0.11599961422358072
0.16353946450206722
0.09458795182676553
0.14855608209372695
0.0741185278646082
0.3520383981005655
0.08276213638432646
0.07506568028923112
0.11365820124976551
0.033741883236838285
0.03832224091586849
0.16105392390771758
0.11271172754476014
0.047464672138912964
0.05524404918299431
0.04975889079436349
0.047787838528640304
0.03411193953056542
0.02886208727264945
0.048185695770979774
0.08194192095810673
0.07596175716367475
0.06909602439709386
0.12958995473379742
0.04439232139711784
0.1309315789639739
0.0526526633013793
0.055935168660711396
0.08111628348278681
0.1536143519664428
0.2463298516126955
0.27352032091379014
0.12618087909980863
0.17257578092899697
0.17549276140838388
0.15325086605810154
0.03823709001305328
0.04890189800792392
0.07908070585331048
0.09808840766468913
0.09233735306310029
0.059485410365812015
0.05930073299789946
0.03975046257332082
0.05861923532770603
0.13935460097225974
0.103653536173229
0.10263951364419521
0.10464054341916301
0.09697248543057703
0.13332750863879145
0.10636031935062949
0.013236988750711474
0.18182058003568036
0.15525570204224906
0.17105685998111717
0.017326619391672685
0.028089265149037194
0.03536967717233714
0.03418599763726928
0.028069338372178523
0.07986155578883408
0.14004794501526652
0.24936079559891275
0.23328797233068047
0.34690061659117094
0.27444773132868
0.24724659415801245
0.2799998833094619
0.06854853255209044
0.06517237368816431
0.04526272843591241
0.3586032288980337
0.2482089292384486
0.1512923474322745
0.1833193162066342
0.3024850739225308
0.051279696732165404
0.13270486842853732
0.1561649481030992
0.05033718710808625
0.16750852946813297
0.07859649449077
0.07351798588785237
0.06903057606225009
0.044368757049595954
0.03268292846179636
0.06533961805383176
0.07252981211588315
0.1776299217762767
0.1526852872260995
0.1535377264891064
0.15661967409350613
0.1534180963053945
0.13517839810838359
0.1507610066065405
0.0521766998224011
0.13704450264174883
0.10615815087780173
0.1079379645432068
0.10946636689168322
0.050894642911453084
0.0290668123494395
0.12821430909242454
0.41718689762263794
0.14081852651502633
0.1338019565067056
0.27491117654908065
0.4446126382718755
0.44480641068280424
0.5024597589209855
0.3098223236496321
0.4764110232308389
0.17885643083118413
0.19034828085097025
0.15042872850027492
0.07826156470627987
0.1341233257297347
0.1321357019753956
0.10920232411180238
0.11830798821580298
0.1082952172050926
0.1982102343004987
0.1377250908017654
0.16598062999545696
0.13377940375841973
0.06487260144633106
0.10182179151591376
0.3232404306068995
0.13372232313462168
0.17154732568556738
0.24988162310964016
0.09268848417825476
0.1096400884941627
0.08258266243975385
0.1681626476470115
0.1543241068018785
0.11455311893847762
0.19987669862452198
0.11627474807445173
0.509442776187229
0.31415656754143306
0.3599089001300335
0.30119599829711263
0.35588098274085844
0.31379288500776525
0.5176714389447115
0.4376888598929557
0.12369924619670603
0.4150003424403966
0.36826346847115043
0.3827189054290509
0.4318759189410216
0.45859076310916425
0.27419243287551387
0.0303179819883311
0.047965063800279456
0.036705967306520745
0.04812729004947092
0.020484368404181687
0.017779308866549007
0.02853978373072349
0.22244023189794768
0.05587045605696084
0.03821312421189283
0.05142946351614539
0.016851142583381325
0.03997692245163582
0.05591909173300323
0.07029094629104929
0.062008253781809276
0.042752437633753256
0.024600265488154336
0.05440276600156278
0.05957943914427031
0.09379252361073512
0.030060548345566047
0.0303806468521567
0.35360010658626984
0.41690187731864153
0.5573942534159508
0.4988760796758461
0.5237793525988484
0.42440284819158725
0.5458115364082053
0.06909960517197149
0.17097590742062702
0.24155514310162968
0.3914487383826205
0.5796724965786914
0.5130758008309229
0.5218298402324153
0.0787653821766265
0.49782674530794657
0.21650208591756473
0.11066293705338144
0.08331679127088719
0.14267676431086937
0.11408733993770011
0.11735611442508065
0.10927966659456008
0.21652661562290085
0.08040114992582106
0.06957665900372728
0.05728570724967541
0.052512114450547036
0.05690154408146967
0.054584996639651766
0.030050640498671996
0.15603677766791257
0.23536802754850772
0.24607388157895718
0.20861481027594983
0.30676451887528416
0.20971486979811507
0.2287375927459493
0.3599892434783601
0.10768223679576125
0.26961788333528547
0.2606029119508107
0.098556209092403
0.2216237895255415
0.22239617129485525
0.22705167260795478
0.24958538820969536
0.29471328982320705
0.28270424301969954
0.24771573757897208
0.1021429989287719
0.2815117794305473
0.27424369284112865
0.11564834394207087
0.10442496487713308
0.3053439706321978
0.2469951685152368
0.2138497155742706
0.12513221343889772
0.08042884340974818
0.09938735241862996
0.14781925812418475
0.1646080617070191
0.12983295540003983
0.07023604713451422
0.01633597943639229
0.0865540351938082
0.015643559832746873
0.08953628930360688
0.04875707225555103
0.11741548049568186
0.11058170428833226
0.12146204384711887
0.13146791613038844
0.16027001174060126
0.16069094120041535
0.15123034310941405
0.27057012081619863
0.27783489546445606
0.3229611624037482
0.33283192654122756
0.2857638750098238
0.23749544418174634
0.034482997722311566
0.10481453173776388
0.10048046395649028
0.5255351937074842
0.12057351083730143
0.107609390825621
0.07227521310645743
0.012849969567335213
0.047888796767256527
0.03635705382364972
0.18026590823818528
0.032777414932321024
0.13037236957511072
0.3340351862164737
0.13946366093622467
0.18075706262046273
0.09238833603826622
0.06259848913459663
0.0756154765675169
0.20534563453626167
0.12203744199598472
0.06354854891562876
0.21486642135023942
0.09700278318532969
0.07800134983118248
0.07328936474827885
0.0324702009862309
0.04124887908185104
0.1437890986986876
0.10774551365754127
0.16016190625331986
0.02365940289631287
0.18859069652337512
0.0707725947255525
0.10576074414317978
0.09511212151077854
0.12480496780600664
0.1500956836732544
0.11904807542628794
0.24718391700424353
0.10754766819463817
0.12541222355602716
0.13559976187143938
0.060754835588241296
0.13891740250821455
0.09551322735557813
0.08378865549779316
0.10624429392570457
0.08914634784517816
0.05016597213112039
0.03389904031882229
0.24746054006822713
0.027876851233965983
0.05734302169397941
0.17421812733292227
0.09658175933793918
0.07682621890215825
0.12195938444123201
0.12917492833344515
0.20210310322267308
0.17027252481401792
0.1721430772549989
0.20328576086928657
0.20615796661044444
0.11006141620038881
0.16146290555127574
0.1537866331025466
0.041621413704980854
0.027817094666153886
0.0782930224484727
0.05444140514743616
0.038487761961989275
0.14993695179435912
0.041177506406170544
0.0996643437654017
0.06475943274139595
0.07324081642700632
0.04839025259646167
0.02514863560202087
0.15135591794551637
0.09350785509314762
0.21683178832336467
0.1621014128958454
0.07773788832515723
0.05319732801770375
0.08175179742076132
0.03671321717906443
0.056033305360579
0.07526607405646303
0.07827047187195312
0.09385226974443966
0.09478600894946874
0.07647938930612333
0.04356898775243048
0.08331518957730229
0.0517935124855695
0.042953997891039826
0.03296354698907151
0.08137131198868836
0.1274312116615586
0.130929724845267
0.09477532451424185
0.08011643935367568
0.3138987752313672
0.15090001609796322
0.06153450843170257
0.06128922318922339
0.20454601305047598
0.20513121001386658
0.19423930900152978
0.2066105445181064
0.167677046645198
0.1297761734912102
0.23470637471550232
0.19479216988869213
0.19863437527863553
0.07553165493485198
0.06347512132316965
0.07089566723355664
0.08421157952278263
0.06244443633486382
0.11840349616479594
0.05324700618259836
0.10872377734684661
0.09413291393787537
0.09720517215372941
0.07479308395684396
0.14064097824907426
0.11153688682453937
0.16917158199799376
0.3128037772935542
0.34924043221934226
0.2312410028666738
0.27868360180058893
0.21745663955126715
0.1916388487537552
0.19490521887854786
0.2876241429533469
0.3127009156432136
0.1056831265896392
0.16037993123587777
0.1369513784614316
0.06148100593789241
0.1340120764069289
0.10871611059737468
0.10493592965130846
0.09949049986052864
0.147429600168202
0.08977884743774919
0.13301727917608308
0.1016193908052305
0.3195678797773454
0.3148082293835708
0.06271586443908767
0.12282862169630782
0.10430606057226789
0.1462761278869167
0.07531312033360778
0.11657337473450237
0.14804123397101915
0.1528294654489706
0.14138031805979365
0.12500387696885631
0.16787347642205985
0.11546407682497457
0.19938006592200455
0.526843420595729
0.4056252720905461
0.5275892627747878
0.10046933392576361
0.20372602173125431
0.1542564659309671
0.09427335662180109
0.04500223572716471
0.031447827399406054
0.055509283562701815
0.1731391063971776
0.20066334870819857
0.3454183080765456
0.2154170916422148
0.33342408770286414
0.2671295716551191
0.2100627433795005
0.2287938818835166
0.25280806901184694
0.23835127974799228
0.41807812648611464
0.5685311443863708
0.2497487696748007
0.289097415889443
0.27558382633578193
0.3541056967950021
0.2114475984398379
0.3493747970160695
0.4204215520691829
0.3830721537099399
0.35444679575035193
0.0490031089893111
0.34422942187415256
0.3957361889011485
0.36625741523275995
0.3488859897709842
0.3872796523166798
0.4025831410831963
0.0747799692816841
0.10159106971059213
0.06468915083010565
0.11343066943423544
0.07395862010897586
0.09645801433842977
0.06578943503443235
0.07457793486525365
0.05390532706981262
0.223388358865167
0.24444537716566828
0.10583745136165003
0.21498582336079694
0.14109265834338283
0.04432308329509007
0.06960497462338806
0.062051630058462814
0.05346004935905855
0.04959148527067751
0.10159516909379805
0.2291430438367036
0.18389851885705044
0.231484735670356
0.15801519032323666
0.19195441061498436
0.12150807286796142
0.1257356102061347
0.08537256382758576
0.18187445535760027
0.1431056288111693
0.17294572133776712
0.1895788186783782
0.11482029465627193
0.19118496093485254
0.17211206092669543
0.08006986474772342
0.16182969587973817
0.17187802190403353
0.1456285411896463
0.17935734210841334
0.24040944698424435
0.06139396060561578
0.12900403049268452
0.09805697760041614
0.09254796316471162