# vtk DataFile Version 1.0
Bar_TO_3D
ASCII
DATASET UNSTRUCTURED_GRID
POINTS 6348 float 
-5.0 -5.0 50.0
-5.0 5.0 50.0
-5.0 5.0 0.0
-5.0 -5.0 0.0
5.0 5.0 50.0
5.0 5.0 0.0
5.0 -5.0 0.0
5.0 -5.0 50.0
-5.0 -4.0 50.0
-5.0 -3.0 50.0
-5.0 -2.0 50.0
-5.0 -1.0 50.0
-5.0 0.0 50.0
-5.0 1.0 50.0
-5.0 2.0 50.0
-5.0 3.0 50.0
-5.0 4.0 50.0
-5.0 5.0 49.0
-5.0 5.0 48.0
-5.0 5.0 47.0
-5.0 5.0 46.0
-5.0 5.0 45.0
-5.0 5.0 44.0
-5.0 5.0 43.0
-5.0 5.0 42.0
-5.0 5.0 41.0
-5.0 5.0 40.0
-5.0 5.0 39.0
-5.0 5.0 38.0
-5.0 5.0 37.0
-5.0 5.0 36.0
-5.0 5.0 35.0
-5.0 5.0 34.0
-5.0 5.0 33.0
-5.0 5.0 32.0
-5.0 5.0 31.0
-5.0 5.0 30.0
-5.0 5.0 29.0
-5.0 5.0 28.0
-5.0 5.0 27.0
-5.0 5.0 26.0
-5.0 5.0 25.0
-5.0 5.0 24.0
-5.0 5.0 23.0
-5.0 5.0 22.0
-5.0 5.0 21.0
-5.0 5.0 20.0
-5.0 5.0 19.0
-5.0 5.0 18.0
-5.0 5.0 17.0
-5.0 5.0 16.0
-5.0 5.0 15.0
-5.0 5.0 14.0
-5.0 5.0 13.0
-5.0 5.0 12.0
-5.0 5.0 11.0
-5.0 5.0 10.0
-5.0 5.0 9.0
-5.0 5.0 8.0
-5.0 5.0 7.0
-5.0 5.0 6.0
-5.0 5.0 5.0
-5.0 5.0 4.0
-5.0 5.0 3.0
-5.0 5.0 2.0
-5.0 5.0 1.0
-5.0 4.0 0.0
-5.0 3.0 0.0
-5.0 2.0 0.0
-5.0 1.0 0.0
-5.0 0.0 0.0
-5.0 -1.0 0.0
-5.0 -2.0 0.0
-5.0 -3.0 0.0
-5.0 -4.0 0.0
-5.0 -5.0 1.0
-5.0 -5.0 2.0
-5.0 -5.0 3.0
-5.0 -5.0 4.0
-5.0 -5.0 5.0
-5.0 -5.0 6.0
-5.0 -5.0 7.0
-5.0 -5.0 8.0
-5.0 -5.0 9.0
-5.0 -5.0 10.0
-5.0 -5.0 11.0
-5.0 -5.0 12.0
-5.0 -5.0 13.0
-5.0 -5.0 14.0
-5.0 -5.0 15.0
-5.0 -5.0 16.0
-5.0 -5.0 17.0
-5.0 -5.0 18.0
-5.0 -5.0 19.0
-5.0 -5.0 20.0
-5.0 -5.0 21.0
-5.0 -5.0 22.0
-5.0 -5.0 23.0
-5.0 -5.0 24.0
-5.0 -5.0 25.0
-5.0 -5.0 26.0
-5.0 -5.0 27.0
-5.0 -5.0 28.0
-5.0 -5.0 29.0
-5.0 -5.0 30.0
-5.0 -5.0 31.0
-5.0 -5.0 32.0
-5.0 -5.0 33.0
-5.0 -5.0 34.0
-5.0 -5.0 35.0
-5.0 -5.0 36.0
-5.0 -5.0 37.0
-5.0 -5.0 38.0
-5.0 -5.0 39.0
-5.0 -5.0 40.0
-5.0 -5.0 41.0
-5.0 -5.0 42.0
-5.0 -5.0 43.0
-5.0 -5.0 44.0
-5.0 -5.0 45.0
-5.0 -5.0 46.0
-5.0 -5.0 47.0
-5.0 -5.0 48.0
-5.0 -5.0 49.0
-4.0 5.0 50.0
-3.0 5.0 50.0
-2.0 5.0 50.0
-1.0 5.0 50.0
0.0 5.0 50.0
1.0 5.0 50.0
2.0 5.0 50.0
3.0 5.0 50.0
4.0 5.0 50.0
5.0 5.0 49.0
5.0 5.0 48.0
5.0 5.0 47.0
5.0 5.0 46.0
5.0 5.0 45.0
5.0 5.0 44.0
5.0 5.0 43.0
5.0 5.0 42.0
5.0 5.0 41.0
5.0 5.0 40.0
5.0 5.0 39.0
5.0 5.0 38.0
5.0 5.0 37.0
5.0 5.0 36.0
5.0 5.0 35.0
5.0 5.0 34.0
5.0 5.0 33.0
5.0 5.0 32.0
5.0 5.0 31.0
5.0 5.0 30.0
5.0 5.0 29.0
5.0 5.0 28.0
5.0 5.0 27.0
5.0 5.0 26.0
5.0 5.0 25.0
5.0 5.0 24.0
5.0 5.0 23.0
5.0 5.0 22.0
5.0 5.0 21.0
5.0 5.0 20.0
5.0 5.0 19.0
5.0 5.0 18.0
5.0 5.0 17.0
5.0 5.0 16.0
5.0 5.0 15.0
5.0 5.0 14.0
5.0 5.0 13.0
5.0 5.0 12.0
5.0 5.0 11.0
5.0 5.0 10.0
5.0 5.0 9.0
5.0 5.0 8.0
5.0 5.0 7.0
5.0 5.0 6.0
5.0 5.0 5.0
5.0 5.0 4.0
5.0 5.0 3.0
5.0 5.0 2.0
5.0 5.0 1.0
4.0 5.0 0.0
3.0 5.0 0.0
2.0 5.0 0.0
1.0 5.0 0.0
0.0 5.0 0.0
-1.0 5.0 0.0
-2.0 5.0 0.0
-3.0 5.0 0.0
-4.0 5.0 0.0
5.0 4.0 0.0
5.0 3.0 0.0
5.0 2.0 0.0
5.0 1.0 0.0
5.0 0.0 0.0
5.0 -1.0 0.0
5.0 -2.0 0.0
5.0 -3.0 0.0
5.0 -4.0 0.0
4.0 -5.0 0.0
3.0 -5.0 0.0
2.0 -5.0 0.0
1.0 -5.0 0.0
0.0 -5.0 0.0
-1.0 -5.0 0.0
-2.0 -5.0 0.0
-3.0 -5.0 0.0
-4.0 -5.0 0.0
4.0 -5.0 50.0
3.0 -5.0 50.0
2.0 -5.0 50.0
1.0 -5.0 50.0
0.0 -5.0 50.0
-1.0 -5.0 50.0
-2.0 -5.0 50.0
-3.0 -5.0 50.0
-4.0 -5.0 50.0
5.0 -5.0 1.0
5.0 -5.0 2.0
5.0 -5.0 3.0
5.0 -5.0 4.0
5.0 -5.0 5.0
5.0 -5.0 6.0
5.0 -5.0 7.0
5.0 -5.0 8.0
5.0 -5.0 9.0
5.0 -5.0 10.0
5.0 -5.0 11.0
5.0 -5.0 12.0
5.0 -5.0 13.0
5.0 -5.0 14.0
5.0 -5.0 15.0
5.0 -5.0 16.0
5.0 -5.0 17.0
5.0 -5.0 18.0
5.0 -5.0 19.0
5.0 -5.0 20.0
5.0 -5.0 21.0
5.0 -5.0 22.0
5.0 -5.0 23.0
5.0 -5.0 24.0
5.0 -5.0 25.0
5.0 -5.0 26.0
5.0 -5.0 27.0
5.0 -5.0 28.0
5.0 -5.0 29.0
5.0 -5.0 30.0
5.0 -5.0 31.0
5.0 -5.0 32.0
5.0 -5.0 33.0
5.0 -5.0 34.0
5.0 -5.0 35.0
5.0 -5.0 36.0
5.0 -5.0 37.0
5.0 -5.0 38.0
5.0 -5.0 39.0
5.0 -5.0 40.0
5.0 -5.0 41.0
5.0 -5.0 42.0
5.0 -5.0 43.0
5.0 -5.0 44.0
5.0 -5.0 45.0
5.0 -5.0 46.0
5.0 -5.0 47.0
5.0 -5.0 48.0
5.0 -5.0 49.0
5.0 -4.0 50.0
5.0 -3.0 50.0
5.0 -2.0 50.0
5.0 -1.0 50.0
5.0 0.0 50.0
5.0 1.0 50.0
5.0 2.0 50.0
5.0 3.0 50.0
5.0 4.0 50.0
-5.0 -4.0 49.0
-5.0 -3.0 49.0
-5.0 -2.0 49.0
-5.0 -1.0 49.0
-5.0 0.0 49.0
-5.0 1.0 49.0
-5.0 2.0 49.0
-5.0 3.0 49.0
-5.0 4.0 49.0
-5.0 -4.0 48.0
-5.0 -3.0 48.0
-5.0 -2.0 48.0
-5.0 -1.0 48.0
-5.0 0.0 48.0
-5.0 1.0 48.0
-5.0 2.0 48.0
-5.0 3.0 48.0
-5.0 4.0 48.0
-5.0 -4.0 47.0
-5.0 -3.0 47.0
-5.0 -2.0 47.0
-5.0 -1.0 47.0
-5.0 0.0 47.0
-5.0 1.0 47.0
-5.0 2.0 47.0
-5.0 3.0 47.0
-5.0 4.0 47.0
-5.0 -4.0 46.0
-5.0 -3.0 46.0
-5.0 -2.0 46.0
-5.0 -1.0 46.0
-5.0 0.0 46.0
-5.0 1.0 46.0
-5.0 2.0 46.0
-5.0 3.0 46.0
-5.0 4.0 46.0
-5.0 -4.0 45.0
-5.0 -3.0 45.0
-5.0 -2.0 45.0
-5.0 -1.0 45.0
-5.0 0.0 45.0
-5.0 1.0 45.0
-5.0 2.0 45.0
-5.0 3.0 45.0
-5.0 4.0 45.0
-5.0 -4.0 44.0
-5.0 -3.0 44.0
-5.0 -2.0 44.0
-5.0 -1.0 44.0
-5.0 0.0 44.0
-5.0 1.0 44.0
-5.0 2.0 44.0
-5.0 3.0 44.0
-5.0 4.0 44.0
-5.0 -4.0 43.0
-5.0 -3.0 43.0
-5.0 -2.0 43.0
-5.0 -1.0 43.0
-5.0 0.0 43.0
-5.0 1.0 43.0
-5.0 2.0 43.0
-5.0 3.0 43.0
-5.0 4.0 43.0
-5.0 -4.0 42.0
-5.0 -3.0 42.0
-5.0 -2.0 42.0
-5.0 -1.0 42.0
-5.0 0.0 42.0
-5.0 1.0 42.0
-5.0 2.0 42.0
-5.0 3.0 42.0
-5.0 4.0 42.0
-5.0 -4.0 41.0
-5.0 -3.0 41.0
-5.0 -2.0 41.0
-5.0 -1.0 41.0
-5.0 0.0 41.0
-5.0 1.0 41.0
-5.0 2.0 41.0
-5.0 3.0 41.0
-5.0 4.0 41.0
-5.0 -4.0 40.0
-5.0 -3.0 40.0
-5.0 -2.0 40.0
-5.0 -1.0 40.0
-5.0 0.0 40.0
-5.0 1.0 40.0
-5.0 2.0 40.0
-5.0 3.0 40.0
-5.0 4.0 40.0
-5.0 -4.0 39.0
-5.0 -3.0 39.0
-5.0 -2.0 39.0
-5.0 -1.0 39.0
-5.0 0.0 39.0
-5.0 1.0 39.0
-5.0 2.0 39.0
-5.0 3.0 39.0
-5.0 4.0 39.0
-5.0 -4.0 38.0
-5.0 -3.0 38.0
-5.0 -2.0 38.0
-5.0 -1.0 38.0
-5.0 0.0 38.0
-5.0 1.0 38.0
-5.0 2.0 38.0
-5.0 3.0 38.0
-5.0 4.0 38.0
-5.0 -4.0 37.0
-5.0 -3.0 37.0
-5.0 -2.0 37.0
-5.0 -1.0 37.0
-5.0 0.0 37.0
-5.0 1.0 37.0
-5.0 2.0 37.0
-5.0 3.0 37.0
-5.0 4.0 37.0
-5.0 -4.0 36.0
-5.0 -3.0 36.0
-5.0 -2.0 36.0
-5.0 -1.0 36.0
-5.0 0.0 36.0
-5.0 1.0 36.0
-5.0 2.0 36.0
-5.0 3.0 36.0
-5.0 4.0 36.0
-5.0 -4.0 35.0
-5.0 -3.0 35.0
-5.0 -2.0 35.0
-5.0 -1.0 35.0
-5.0 0.0 35.0
-5.0 1.0 35.0
-5.0 2.0 35.0
-5.0 3.0 35.0
-5.0 4.0 35.0
-5.0 -4.0 34.0
-5.0 -3.0 34.0
-5.0 -2.0 34.0
-5.0 -1.0 34.0
-5.0 0.0 34.0
-5.0 1.0 34.0
-5.0 2.0 34.0
-5.0 3.0 34.0
-5.0 4.0 34.0
-5.0 -4.0 33.0
-5.0 -3.0 33.0
-5.0 -2.0 33.0
-5.0 -1.0 33.0
-5.0 0.0 33.0
-5.0 1.0 33.0
-5.0 2.0 33.0
-5.0 3.0 33.0
-5.0 4.0 33.0
-5.0 -4.0 32.0
-5.0 -3.0 32.0
-5.0 -2.0 32.0
-5.0 -1.0 32.0
-5.0 0.0 32.0
-5.0 1.0 32.0
-5.0 2.0 32.0
-5.0 3.0 32.0
-5.0 4.0 32.0
-5.0 -4.0 31.0
-5.0 -3.0 31.0
-5.0 -2.0 31.0
-5.0 -1.0 31.0
-5.0 0.0 31.0
-5.0 1.0 31.0
-5.0 2.0 31.0
-5.0 3.0 31.0
-5.0 4.0 31.0
-5.0 -4.0 30.0
-5.0 -3.0 30.0
-5.0 -2.0 30.0
-5.0 -1.0 30.0
-5.0 0.0 30.0
-5.0 1.0 30.0
-5.0 2.0 30.0
-5.0 3.0 30.0
-5.0 4.0 30.0
-5.0 -4.0 29.0
-5.0 -3.0 29.0
-5.0 -2.0 29.0
-5.0 -1.0 29.0
-5.0 0.0 29.0
-5.0 1.0 29.0
-5.0 2.0 29.0
-5.0 3.0 29.0
-5.0 4.0 29.0
-5.0 -4.0 28.0
-5.0 -3.0 28.0
-5.0 -2.0 28.0
-5.0 -1.0 28.0
-5.0 0.0 28.0
-5.0 1.0 28.0
-5.0 2.0 28.0
-5.0 3.0 28.0
-5.0 4.0 28.0
-5.0 -4.0 27.0
-5.0 -3.0 27.0
-5.0 -2.0 27.0
-5.0 -1.0 27.0
-5.0 0.0 27.0
-5.0 1.0 27.0
-5.0 2.0 27.0
-5.0 3.0 27.0
-5.0 4.0 27.0
-5.0 -4.0 26.0
-5.0 -3.0 26.0
-5.0 -2.0 26.0
-5.0 -1.0 26.0
-5.0 0.0 26.0
-5.0 1.0 26.0
-5.0 2.0 26.0
-5.0 3.0 26.0
-5.0 4.0 26.0
-5.0 -4.0 25.0
-5.0 -3.0 25.0
-5.0 -2.0 25.0
-5.0 -1.0 25.0
-5.0 0.0 25.0
-5.0 1.0 25.0
-5.0 2.0 25.0
-5.0 3.0 25.0
-5.0 4.0 25.0
-5.0 -4.0 24.0
-5.0 -3.0 24.0
-5.0 -2.0 24.0
-5.0 -1.0 24.0
-5.0 0.0 24.0
-5.0 1.0 24.0
-5.0 2.0 24.0
-5.0 3.0 24.0
-5.0 4.0 24.0
-5.0 -4.0 23.0
-5.0 -3.0 23.0
-5.0 -2.0 23.0
-5.0 -1.0 23.0
-5.0 0.0 23.0
-5.0 1.0 23.0
-5.0 2.0 23.0
-5.0 3.0 23.0
-5.0 4.0 23.0
-5.0 -4.0 22.0
-5.0 -3.0 22.0
-5.0 -2.0 22.0
-5.0 -1.0 22.0
-5.0 0.0 22.0
-5.0 1.0 22.0
-5.0 2.0 22.0
-5.0 3.0 22.0
-5.0 4.0 22.0
-5.0 -4.0 21.0
-5.0 -3.0 21.0
-5.0 -2.0 21.0
-5.0 -1.0 21.0
-5.0 0.0 21.0
-5.0 1.0 21.0
-5.0 2.0 21.0
-5.0 3.0 21.0
-5.0 4.0 21.0
-5.0 -4.0 20.0
-5.0 -3.0 20.0
-5.0 -2.0 20.0
-5.0 -1.0 20.0
-5.0 0.0 20.0
-5.0 1.0 20.0
-5.0 2.0 20.0
-5.0 3.0 20.0
-5.0 4.0 20.0
-5.0 -4.0 19.0
-5.0 -3.0 19.0
-5.0 -2.0 19.0
-5.0 -1.0 19.0
-5.0 0.0 19.0
-5.0 1.0 19.0
-5.0 2.0 19.0
-5.0 3.0 19.0
-5.0 4.0 19.0
-5.0 -4.0 18.0
-5.0 -3.0 18.0
-5.0 -2.0 18.0
-5.0 -1.0 18.0
-5.0 0.0 18.0
-5.0 1.0 18.0
-5.0 2.0 18.0
-5.0 3.0 18.0
-5.0 4.0 18.0
-5.0 -4.0 17.0
-5.0 -3.0 17.0
-5.0 -2.0 17.0
-5.0 -1.0 17.0
-5.0 0.0 17.0
-5.0 1.0 17.0
-5.0 2.0 17.0
-5.0 3.0 17.0
-5.0 4.0 17.0
-5.0 -4.0 16.0
-5.0 -3.0 16.0
-5.0 -2.0 16.0
-5.0 -1.0 16.0
-5.0 0.0 16.0
-5.0 1.0 16.0
-5.0 2.0 16.0
-5.0 3.0 16.0
-5.0 4.0 16.0
-5.0 -4.0 15.0
-5.0 -3.0 15.0
-5.0 -2.0 15.0
-5.0 -1.0 15.0
-5.0 0.0 15.0
-5.0 1.0 15.0
-5.0 2.0 15.0
-5.0 3.0 15.0
-5.0 4.0 15.0
-5.0 -4.0 14.0
-5.0 -3.0 14.0
-5.0 -2.0 14.0
-5.0 -1.0 14.0
-5.0 0.0 14.0
-5.0 1.0 14.0
-5.0 2.0 14.0
-5.0 3.0 14.0
-5.0 4.0 14.0
-5.0 -4.0 13.0
-5.0 -3.0 13.0
-5.0 -2.0 13.0
-5.0 -1.0 13.0
-5.0 0.0 13.0
-5.0 1.0 13.0
-5.0 2.0 13.0
-5.0 3.0 13.0
-5.0 4.0 13.0
-5.0 -4.0 12.0
-5.0 -3.0 12.0
-5.0 -2.0 12.0
-5.0 -1.0 12.0
-5.0 0.0 12.0
-5.0 1.0 12.0
-5.0 2.0 12.0
-5.0 3.0 12.0
-5.0 4.0 12.0
-5.0 -4.0 11.0
-5.0 -3.0 11.0
-5.0 -2.0 11.0
-5.0 -1.0 11.0
-5.0 0.0 11.0
-5.0 1.0 11.0
-5.0 2.0 11.0
-5.0 3.0 11.0
-5.0 4.0 11.0
-5.0 -4.0 10.0
-5.0 -3.0 10.0
-5.0 -2.0 10.0
-5.0 -1.0 10.0
-5.0 0.0 10.0
-5.0 1.0 10.0
-5.0 2.0 10.0
-5.0 3.0 10.0
-5.0 4.0 10.0
-5.0 -4.0 9.0
-5.0 -3.0 9.0
-5.0 -2.0 9.0
-5.0 -1.0 9.0
-5.0 0.0 9.0
-5.0 1.0 9.0
-5.0 2.0 9.0
-5.0 3.0 9.0
-5.0 4.0 9.0
-5.0 -4.0 8.0
-5.0 -3.0 8.0
-5.0 -2.0 8.0
-5.0 -1.0 8.0
-5.0 0.0 8.0
-5.0 1.0 8.0
-5.0 2.0 8.0
-5.0 3.0 8.0
-5.0 4.0 8.0
-5.0 -4.0 7.0
-5.0 -3.0 7.0
-5.0 -2.0 7.0
-5.0 -1.0 7.0
-5.0 0.0 7.0
-5.0 1.0 7.0
-5.0 2.0 7.0
-5.0 3.0 7.0
-5.0 4.0 7.0
-5.0 -4.0 6.0
-5.0 -3.0 6.0
-5.0 -2.0 6.0
-5.0 -1.0 6.0
-5.0 0.0 6.0
-5.0 1.0 6.0
-5.0 2.0 6.0
-5.0 3.0 6.0
-5.0 4.0 6.0
-5.0 -4.0 5.0
-5.0 -3.0 5.0
-5.0 -2.0 5.0
-5.0 -1.0 5.0
-5.0 0.0 5.0
-5.0 1.0 5.0
-5.0 2.0 5.0
-5.0 3.0 5.0
-5.0 4.0 5.0
-5.0 -4.0 4.0
-5.0 -3.0 4.0
-5.0 -2.0 4.0
-5.0 -1.0 4.0
-5.0 0.0 4.0
-5.0 1.0 4.0
-5.0 2.0 4.0
-5.0 3.0 4.0
-5.0 4.0 4.0
-5.0 -4.0 3.0
-5.0 -3.0 3.0
-5.0 -2.0 3.0
-5.0 -1.0 3.0
-5.0 0.0 3.0
-5.0 1.0 3.0
-5.0 2.0 3.0
-5.0 3.0 3.0
-5.0 4.0 3.0
-5.0 -4.0 2.0
-5.0 -3.0 2.0
-5.0 -2.0 2.0
-5.0 -1.0 2.0
-5.0 0.0 2.0
[...]
CELL_DATA 31305 
FIELD FieldData  1
stress_iload_1 1 31305 float 
4.876036064907725 
4.2317608278224865 
5.6839551177337775 
4.342774750841049 
6.053067552471784 
3.617700446800411 
5.808183442887987 
4.272887055579544 
4.083977634918723 
2.6038389343040063 
4.653808384933243 
3.3221743522150393 
3.168878670415104 
2.8226185869207083 
3.6093726986970864 
5.427154485918057 
21.157125071051233 
6.329526336744232 
6.575774586249508 
8.103209296473283 
6.6817431624160495 
9.011821160771033 
5.313747534420022 
5.9555221898148805 
20.88918375000369 
5.3718170434222925 
5.403627136050784 
2.7101789642135325 
5.993221942428371 
4.234287858294147 
3.5429883535718916 
6.070275354692281 
13.60026226854193 
3.2179854108338226 
9.54767993034568 
9.55425303082539 
9.364993551096017 
15.88270047995714 
3.7675885624894137 
9.373415115135515 
8.575960634405034 
4.112013559935967 
4.078308003681499 
5.806326624248751 
5.826822132344358 
3.6376641990609646 
5.147730058571899 
4.016038264590378 
4.185958882758774 
3.948538006988401 
4.772801992951585 
4.039523370894186 
2.8923626140407848 
3.095489796401041 
5.735977981986313 
2.7522774775397627 
3.1340820103571634 
2.7628711715002656 
2.949203403319503 
3.122841972155512 
6.4845547024735035 
3.3446370345239256 
4.1793535043545065 
5.252492901159964 
3.825307650413099 
5.046574654490287 
4.6146235702109735 
5.219888514823486 
5.088884262462606 
4.732461036482546 
4.543639859358612 
3.8688192574481377 
22.543254691706007 
2.6071719079122833 
3.5002547393417474 
7.0392604687341365 
3.968409934335284 
5.082492909265997 
5.326647812623283 
6.115211847045791 
5.990566729485045 
5.3433097787711406 
4.257792124882344 
7.293181724399083 
8.248990485362736 
8.329148154593055 
3.9812347026016925 
5.398265351925558 
25.89879335588751 
5.255262856093506 
3.7961008770218947 
4.408779827391779 
3.7498491168283126 
4.206814807707594 
3.1762271704635734 
3.4891256991386457 
3.190850188139451 
4.094651618074178 
3.8782147491022747 
3.336362993127926 
5.606084328726549 
1.9297184551883628 
4.454293810456202 
2.97993817347975 
2.748896003839522 
2.796626656684346 
2.827511770426963 
3.036466377122126 
2.8701693320481407 
3.058479732582059 
3.097928342962332 
2.909650853879855 
3.9287125269124776 
2.38726456139626 
3.294214229693602 
3.403979968717707 
4.340223031807412 
2.41409886987091 
2.806894922151228 
6.558786672230879 
2.9375960424570686 
3.058127097147537 
2.8889459514855895 
2.9434485613269246 
2.7481074647910377 
4.368987970176652 
4.320883941812291 
31.29390613747179 
4.077077323675972 
4.0495622165097584 
3.5324913323226794 
20.787387420846244 
3.2447028551016017 
2.919701922334648 
6.6016383331529 
3.664476912873404 
5.990602242637402 
4.194786462618397 
4.308281576091661 
5.134129232241566 
9.463721344851828 
3.9718413662353287 
3.951102049648761 
3.66533641294217 
5.587441322373006 
3.0077434620104198 
2.353400928098313 
2.527180974217998 
2.833587594460857 
3.530161339753108 
2.7746718808595374 
12.250745040483585 
10.070443388301843 
10.26607131486679 
7.9224087683837565 
5.3305114058404355 
6.354751209856415 
6.482704713030013 
4.157558270385896 
4.461994768204313 
4.216032712142053 
3.413943080169098 
24.033527977001587 
3.8304940761725295 
5.305369114541281 
3.0992978673955407 
4.921145899926728 
5.639174921473927 
4.682834916947157 
4.322797132975926 
6.2638029534192565 
7.649592217300621 
8.029202156874678 
4.6818646820530985 
6.815710963983659 
5.046814118983456 
5.697132112749785 
19.806214266204055 
7.9294296685683 
5.794670728702389 
5.968237314315684 
5.182158564073096 
4.065034935739563 
2.8067147123966287 
2.706000257440603 
3.0458945873836165 
3.5068525398405974 
2.7683800991714658 
7.39279800693611 
3.643975116326712 
3.51263046399506 
3.557942482167135 
9.303024288983979 
9.272374691611862 
9.190611802916909 
3.7303738998930185 
6.633896816224076 
3.713476941910445 
3.039408939306199 
4.398910161065562 
5.858790013292567 
6.149370214984185 
7.413193041642549 
32.867145663318134 
7.753873752606084 
2.780912736849796 
2.9323466320891423 
3.3802726921878814 
3.169249505359608 
17.10433835607322 
3.250255125894722 
2.487701305014698 
19.264364182944025 
3.1293669392592465 
2.9624651187976228 
3.080847732191182 
2.828728183361289 
3.1368691847697963 
10.597587166726084 
17.59067013386706 
3.671451387267147 
3.0066752109594446 
3.4575258412581777 
2.874277540886174 
4.219528262552608 
6.706829371819973 
3.6641622426083194 
15.771515870950397 
5.168465705391964 
9.456982555371615 
3.4957487767681146 
4.784635983837803 
2.3336723281944307 
4.6073932997951745 
6.257067386259404 
5.48479540421674 
3.7306647096548295 
4.130359519305967 
3.413103930138241 
11.035597400391325 
8.220780386987416 
4.2427439155120545 
4.993419384918399 
5.934549013553919 
6.149131073390516 
5.487781046596345 
10.855361116405014 
7.834223518678252 
7.310178412954406 
4.694247837222131 
5.854099299970272 
3.361927193154363 
4.272264650078115 
3.044009198506086 
3.6562454553852137 
5.853256865962341 
1.2572813841316917 
1.815019127347699 
3.0566699158932895 
5.506342706456464 
2.780966921388414 
4.727759539240348 
6.13861784393496 
7.113280032395983 
7.075205686837282 
6.039993983385514 
8.889955556663265 
7.626629589694392 
10.857677057311983 
2.6890316109511674 
3.297922913339213 
2.8856230454516028 
3.0794846296593024 
3.1584627010079767 
3.161279786435704 
3.154102190773579 
3.082513123535143 
3.199008017030747 
4.288820548146125 
3.5911746916482215 
3.014646036111815 
16.495773829918964 
13.68825727678707 
16.122748571078088 
14.917262990133272 
11.51064545937563 
11.894670763051614 
17.113367037601865 
22.79814037451586 
16.401617695299695 
12.987522529968624 
9.787501070903518 
9.059669229087095 
5.041807927907703 
2.1627659674987574 
3.3587536646534875 
3.3732323333738408 
3.158048332583799 
3.469145875290854 
4.1521020784540665 
4.476462671501406 
2.937320673028064 
2.9569578135670764 
2.8494208982518052 
2.9542500578406927 
2.921639240176701 
2.964078192239994 
3.0648633415222815 
4.5397757373968775 
9.6188052344262 
6.915068418502074 
4.6621987760369565 
3.671428100402737 
8.239701768579557 
5.966562541068891 
3.037637081242527 
3.0318187733176263 
2.4912639124183302 
2.7373495205286305 
2.5038637812838056 
3.6933484864285533 
2.534967912243174 
3.186717311299275 
3.0797811388130847 
2.338678227970898 
11.80587600308283 
12.281085317021772 
11.968942656942566 
8.676558005869829 
7.550551621223268 
7.984414250137787 
12.945489989574913 
3.5417231495958927 
3.58771682331654 
4.0270323808652115 
3.863703889031927 
3.839905735944599 
3.093025825964001 
3.03864499733697 
13.691605720089653 
3.2076269653929366 
3.4336724984017915 
11.833410106779828 
3.2223572994839422 
3.4687447733152905 
3.136151891752103 
8.057038050653873 
5.829311401922985 
5.788061204812738 
5.157607978391895 
7.688821686936712 
9.699713498194848 
3.4122575712570824 
9.99250652030286 
9.632178844077286 
6.718305979778519 
4.675718183974415 
6.825684550520621 
5.0766985806033444 
8.462298788945928 
8.173229188898432 
11.343789855982633 
12.403526350928411 
12.176797155536365 
2.6255179375734814 
13.946860290932076 
15.955093719647973 
16.003103461884052 
11.829856673646695 
3.0590770605743383 
2.715167306441654 
2.6100904456646608 
9.774799843724002 
2.9996952524986638 
2.6381532227354394 
3.2529993385384626 
4.813902424843402 
5.168773443205292 
1.8297218345376778 
4.812074209822337 
4.3050786651091135 
4.297931121063771 
2.0110906866421 
5.871105464248058 
5.114010912758432 
4.01373430551268 
2.8136763134565217 
3.3379057761505293 
5.172353316737978 
4.226350935671107 
4.190671125299349 
18.241145958645674 
12.766939797606833 
11.02767604441113 
13.758591957001146 
15.057469110545096 
15.044562634855144 
21.253641666323535 
11.284841760826561 
6.703568259937898 
6.261452241156297 
10.113248722839609 
13.17696991610846 
5.7001868306085495 
10.94755885578731 
10.788855686571953 
2.8919583215941373 
4.371009122180172 
5.841938969011661 
7.236089064896968 
3.817764812260015 
3.408546056818369 
3.8903112280449386 
3.66447632917558 
1.9309700011691138 
5.628733944586705 
4.642504037187283 
5.759349716489606 
6.930925207076252 
9.725323384461598 
6.510544390519045 
17.17300999662408 
13.457478073566545 
10.581188883235383 
11.734009638965693 
3.1274903790532576 
5.678213908252047 
3.412336848782573 
5.429369590341395 
3.3694942038696594 
4.366232585675582 
2.452771531544845 
2.756329622249524 
3.424461053648108 
4.067429982133553 
1.9397354159072446 
3.4334747707531497 
16.21212983516403 
19.656224969869214 
2.8354489076746545 
5.501056700663431 
4.767801788791752 
7.36224747125585 
2.9700479296250237 
3.759084556183235 
4.2689877744343105 
3.926253805714308 
16.677537125487408 
4.5381581217946545 
3.619318732329731 
3.4973363080241118 
2.073413086035959 
1.8228736402843833 
2.9437049129232538 
2.950580774057931 
3.3520284633245754 
4.409101194998334 
6.199438324785922 
5.0820230567408435 
4.253886335103256 
5.311122982140674 
16.70798853763818 
8.29482161572706 
5.6383824521934915 
7.7974780661813075 
7.492606269229529 
7.557346067335132 
20.234798778984192 
2.784999231722928 
2.956848542158668 
3.159765938898178 
6.601436485717285 
3.0360789042873644 
2.6536973419486847 
12.323230673481302 
4.915002767212347 
2.5641760314831603 
4.180622974910178 
3.532753774132883 
3.753022695187868 
3.6294661112671056 
6.002684135772921 
7.67820084325319 
2.4151286977957676 
7.24020538229457 
4.717583679896811 
3.012803088398529 
4.52823104910532 
3.3310127121472832 
2.932343521517813 
2.552188244773558 
4.03609705897731 
3.5061806508394993 
3.166880269460672 
3.296171964870936 
4.072980988730228 
3.4219867877700096 
20.720191749028544 
3.4312823846625773 
19.000239378852893 
3.598992843682796 
17.48604990337355 
10.591456671006416 
13.959886637441905 
15.687709601481592 
5.419200329392557 
9.952275680890653 
11.697056052892515 
14.050474650122535 
13.55721500713618 
8.143006865395483 
13.437048200771658 
15.334206190256243 
16.6179634504579 
10.34851556537869 
16.830737251495023 
15.890047419017607 
17.416262923173473 
27.701447464853242 
8.736460865286402 
17.079016582503073 
9.650277862647508 
10.994584963368514 
16.056198856558897 
3.0465611858901918 
3.6842580526985897 
3.8836076001886344 
3.6821483340227883 
4.6799032216626015 
4.68886728107748 
3.816139631518 
4.308492959561962 
5.442733286721741 
5.923107969398461 
5.982116039628104 
4.856472906024314 
4.6474188795738804 
3.3423027556885803 
3.8515878200890428 
4.712332657460025 
6.303557862211916 
3.87958916959658 
20.362041236059483 
7.883400078523818 
7.914464705868096 
9.171497523359896 
6.5666003713370795 
16.10503851162339 
3.877092943818422 
6.619667888683687 
5.148834634835564 
15.171296748129375 
19.452342339327707 
15.528331966681774 
15.42562828500382 
22.385393884937866 
3.206272263971553 
3.2369516090848607 
6.5612488255522265 
4.828181425465996 
5.207770314968345 
6.07852929610891 
4.580300971814615 
5.9202418159215755 
4.239637375933505 
8.806305881265747 
5.236175277907833 
4.4701073544189995 
5.355128555309956 
3.291692051476649 
3.452081280292557 
3.983632314809968 
6.070529272887357 
7.419924229675235 
7.524631733962516 
6.5911293521346925 
16.677392638409717 
3.8834445206095927 
8.555601212150558 
10.549149841518998 
13.631862420053302 
11.035008377000093 
7.000181083495718 
4.030286233093244 
3.347951146165713 
3.700647145564339 
9.422276958996838 
12.650067412929596 
9.100944010266506 
5.609572679517161 
9.255044759893448 
9.685707035951898 
6.767493206945197 
8.447094818281798 
7.861509212659756 
5.211002814960566 
10.729744475479956 
11.357625117474463 
5.671926659905867 
2.724960015572484 
2.876728808674688 
21.11924837739604 
2.959946440104362 
3.0707620249437717 
2.9350758949972895 
2.845835466011883 
3.125072173286049 
3.0557729308499715 
3.733912786123789 
3.9569297488744617 
2.412216651030199 
30.921174211408783 
3.0202490825534873 
2.455415515406172 
2.671768090221019 
2.5461117484316897 
5.743489428210142 
3.644029288112695 
5.710832362999736 
6.291150395772997 
11.926385126297196 
2.20080631658124 
18.308686988150164 
15.001031674037197 
10.08378647177496 
12.834984591720954 
16.520764022943457 
7.543430364767954 
5.9918777116027195 
6.440283357367171 
3.280625003614733 
4.414202565068138 
6.400475853991357 
4.754291708277977 
6.5432373219148845 
2.8179909610957785 
3.412395884825897 
3.4910357415299496 
3.4454230315798764 
2.6807233087568854 
2.9425708697880557 
2.741789316822366 
2.725009281003992 
5.998214803064986 
2.6314669020360295 
2.766346674136805 
3.047024210489199 
3.088145436304899 
2.3840335240393924 
7.647432197549132 
4.428297677660823 
2.375701637343898 
3.8600814842982407 
2.96948499706058 
3.2184992669772416 
3.6547195776679393 
2.845866956265416 
7.8893909797804 
4.722865554604306 
3.8130214936976126 
3.676796224939354 
3.475903340275926 
3.9680069551186232 
3.5458084915126884 
4.356612606432107 
7.971108741225942 
5.679946323044809 
5.503110622537667 
7.266419082884307 
5.952712406554993 
6.699108098648366 
3.7073978791435636 
3.383443132101584 
3.028193943558185 
3.218661754884851 
2.6174347584012403 
3.0420684635562525 
2.809639446836345 
2.761792011826015 
2.3221392447595446 
2.085359706827079 
3.1033506409931064 
2.8854043833532277 
2.990942457404648 
2.9503686939552662 
2.857548981033717 
2.5689755232902636 
6.019174343352336 
2.8680811033910785 
3.13871296289087 
2.729825163938574 
5.736114850443749 
6.509496517319622 
6.475163537688399 
6.150716274115882 
5.620689799731083 
5.714856305890611 
4.437044467741948 
4.25085501520011 
4.05173773702322 
4.277823105098196 
3.398041163910572 
3.9423455513349244 
2.873678737568297 
2.984744817000272 
3.846751671066309 
3.2493880428395916 
2.6936917451653843 
3.768229228657812 
3.085611585183699 
4.348134201021484 
3.070835477976639 
3.2101727287609636 
3.0985478504390573 
4.316327933360281 
4.681968767403405 
11.24703399972754 
11.61447463558757 
15.506291824668988 
11.658325307074938 
9.328029139731045 
14.228326764366209 
11.552230039503462 
5.976456971575365 
4.304465841191785 
4.669025300042002 
5.882951343599346 
3.1690220997327323 
5.6062553698172515 
7.122768550903763 
6.526956920954374 
11.693381805927325 
11.570928564677226 
16.631774284363285 
16.378989499598315 
13.990130667032242 
14.136658327832569 
9.006192397528329 
4.973604353915973 
3.0399550692102117 
7.884683424619193 
8.465631015981177 
5.70174714724007 
6.37172507822699 
6.182673588702061 
6.859491624183664 
6.489616492740625 
7.105582715817213 
7.1997792074140285 
6.191549760809754 
6.2837225425706364 
5.631257628360784 
5.785437495424551 
5.8603310909236415 
7.60211738829142 
4.241731819105267 
5.645631679128574 
2.7504645887726116 
6.486224817925304 
9.901882008046895 
5.394976210792943 
3.24602197987879 
3.5582628046240004 
9.339645026949876 
2.577601257811793 
2.466951998201437 
11.50168159758934 
8.365880167225061 
12.344547759952107 
7.76831695041747 
18.23380011554519 
11.948720241580666 
6.585277124951198 
5.243363633043338 
6.20360618339877 
2.820216056355736 
2.5320120751252135 
3.1181572010753618 
2.8054054617740496 
2.5272832279311874 
2.970750884217635 
3.200395460783914 
13.679780575804719 
6.846137791488199 
5.77760548342083 
6.4861855984597945 
2.7606368392581984 
7.793804101919057 
2.5594262554971587 
4.029144488361695 
4.094418406349638 
10.310818265946674 
5.939807566668337 
16.692128962534976 
3.4922475644592113 
17.17499976088327 
7.66631431895948 
10.66291529718932 
4.571562543123198 
5.168211002780141 
4.725697999474261 
6.397841398561259 
4.537417576944186 
5.127677446806183 
4.556202625872732 
9.077190120234743 
5.052164796220785 
5.789814969233658 
4.792017635243242 
7.426839548486732 
15.193058390877525 
11.020510368883027 
10.656822666353975 
9.705473052413938 
12.997871571705822 
7.243187371219963 
18.139023404152287 
6.70049081831453 
19.811664357922556 
16.957813450932917 
8.090021491489882 
7.663602378317941 
6.264684024051631 
11.886665610159488 
9.251784044358107 
9.408300120930662 
5.989116599897726 
5.270155934626253 
3.5218917449536606 
11.385077423508287 
9.790159595781653 
7.546229448271427 
4.48103874094326 
5.027356789729026 
4.854329274752913 
4.408970104500392 
3.868276744491185 
3.4831593486363106 
5.419539325505345 
4.540757340363485 
4.908803691571607 
4.696825792656785 
7.925338149302377 
7.711131317681164 
3.2681633027529733 
3.7640590013678787 
3.339176655318725 
3.7986755111711106 
4.111027586224617 
2.9824013151219297 
3.4098550172821778 
3.253609400089796 
2.528536797769553 
3.749121220545443 
2.6604781830196575 
3.4565505796768483 
2.194867354108083 
2.6784247177151674 
3.261394404146323 
5.137478051121573 
4.225020407475846 
9.846993269702013 
6.0881932058545924 
3.5780023676142565 
4.220364924491321 
4.099695566911718 
5.613088347106045 
4.8802732166585 
17.818165388031193 
21.255589121861473 
25.050788277975563 
24.918148076082566 
10.619409636545361 
9.124168550198911 
9.7433190732359 
11.355475798410104 
8.858865722107488 
12.227463690880572 
2.456707426554227 
13.195763719491401 
3.6227074818030767 
3.1493653312125645 
2.852760693935889 
3.3496929406398896 
4.815944141088364 
1.9076392223758218 
6.043035593928722 
6.30254535977986 
7.735264000806324 
6.596229038357752 
4.84514101407232 
5.514221334978279 
7.278656847790649 
5.002605725242486 
4.953587625057986 
3.4755901512998175 
3.4338165651644923 
3.8314153266835653 
3.735566412350467 
2.832100508724632 
3.6520304044757834 
2.631634633613796 
2.436176926690903 
3.173532710093481 
2.909200510032293 
2.4805314557812843 
3.333611162800889 
2.5177149567585806 
2.886256674193381 
5.730568463779869 
6.680023129530564 
6.147540341381339 
7.878470847364066 
2.934710516216378 
6.493748203154162 
7.038150619879078 
4.374329114958834 
8.415728443732325 
12.410369137158558 
9.047590265632525 
7.592015917557206 
8.665045030622805 
5.290493065069393 
9.53937875943375 
5.1887243216538845 
9.901681882025855 
10.949124125797782 
17.798577814413786 
13.434769359380914 
2.5932196820638036 
11.99358862406885 
10.435497301824045 
8.82596952808083 
5.341306550581026 
3.4541339701235403 
4.717762645326591 
1.9930953791967165 
3.0100662599524117 
3.6837398050337273 
3.5498920626531043 
2.962229434089699 
2.7626028016849813 
2.5778613831548434 
2.93491358575278 
2.979002505509743 
3.9814688993532124 
4.416972545821951 
4.596036429702499 
5.971693660102767 
5.821781198463522 
2.491472657216265 
4.3556144979486415 
2.405653601403904 
11.86713870894791 
3.33201925945367 
4.786057120627421 
2.976429782600607 
2.460298867165366 
3.3118143824598336 
5.186787502876414 
4.4122545841686 
2.8545946455700317 
4.004424612422828 
8.155523793456089 
4.35711547042436 
4.184862596261568 
4.76624087980136 
3.9094320449574447 
4.417142990205381 
7.857308657955477 
8.003262896097366 
11.68642680172851 
10.346828405994177 
6.4317192831353625 
4.601600210514626 
4.945179519119261 
5.433616421555382 
5.126757402418615 
5.433313494860949 
6.392035142115863 
3.709846132595209 
3.3727922156270087 
3.09281894630086 
3.0189991209370826 
4.420599718234528 
3.2221879824061417 
7.000603873908463 
3.1686031011192375 
4.341189929653479 
4.176686962451743 
4.084128947547846 
4.215674219163011 
5.102760969452048 
5.04797383252173 
4.582431107796247 
2.8815490063113787 
8.184583831141932 
10.917098829586603 
6.556508435530021 
8.538761451493851 
8.795515257822233 
9.85325006915987 
8.11515942119467 
5.4217192836099635 
4.787630235647053 
3.0608436410796105 
5.075649220415017 
4.4056853463711265 
2.786600722129065 
3.527850220907352 
2.691443090670401 
2.8141641789481904 
10.144000367200423 
2.863473855371845 
8.600379467080728 
2.8271310454115786 
2.8182284282980476 
7.866278721816736 
8.803908417570193 
3.0550016024793885 
2.5406853540765857 
3.3694899006883965 
2.982838994732742 
2.9524632099840535 
3.10576789293747 
3.273917323998754 
4.647824041066328 
6.191667342170283 
4.04133592377613 
3.176007197029537 
3.3946928945248604 
4.815179620807877 