# vtk DataFile Version 1.0
Bar_TO_3D
ASCII
DATASET UNSTRUCTURED_GRID
POINTS 6348 float 
-5.0 -5.0 50.0
-5.0 5.0 50.0
-5.0 5.0 0.0
-5.0 -5.0 0.0
5.0 5.0 50.0
5.0 5.0 0.0
5.0 -5.0 0.0
5.0 -5.0 50.0
-5.0 -4.0 50.0
-5.0 -3.0 50.0
-5.0 -2.0 50.0
-5.0 -1.0 50.0
-5.0 0.0 50.0
-5.0 1.0 50.0
-5.0 2.0 50.0
-5.0 3.0 50.0
-5.0 4.0 50.0
-5.0 5.0 49.0
-5.0 5.0 48.0
-5.0 5.0 47.0
-5.0 5.0 46.0
-5.0 5.0 45.0
-5.0 5.0 44.0
-5.0 5.0 43.0
-5.0 5.0 42.0
-5.0 5.0 41.0
-5.0 5.0 40.0
-5.0 5.0 39.0
-5.0 5.0 38.0
-5.0 5.0 37.0
-5.0 5.0 36.0
-5.0 5.0 35.0
-5.0 5.0 34.0
-5.0 5.0 33.0
-5.0 5.0 32.0
-5.0 5.0 31.0
-5.0 5.0 30.0
-5.0 5.0 29.0
-5.0 5.0 28.0
-5.0 5.0 27.0
-5.0 5.0 26.0
-5.0 5.0 25.0
-5.0 5.0 24.0
-5.0 5.0 23.0
-5.0 5.0 22.0
-5.0 5.0 21.0
-5.0 5.0 20.0
-5.0 5.0 19.0
-5.0 5.0 18.0
-5.0 5.0 17.0
-5.0 5.0 16.0
-5.0 5.0 15.0
-5.0 5.0 14.0
-5.0 5.0 13.0
-5.0 5.0 12.0
-5.0 5.0 11.0
-5.0 5.0 10.0
-5.0 5.0 9.0
-5.0 5.0 8.0
-5.0 5.0 7.0
-5.0 5.0 6.0
-5.0 5.0 5.0
-5.0 5.0 4.0
-5.0 5.0 3.0
-5.0 5.0 2.0
-5.0 5.0 1.0
-5.0 4.0 0.0
-5.0 3.0 0.0
-5.0 2.0 0.0
-5.0 1.0 0.0
-5.0 0.0 0.0
-5.0 -1.0 0.0
-5.0 -2.0 0.0
-5.0 -3.0 0.0
-5.0 -4.0 0.0
-5.0 -5.0 1.0
-5.0 -5.0 2.0
-5.0 -5.0 3.0
-5.0 -5.0 4.0
-5.0 -5.0 5.0
-5.0 -5.0 6.0
-5.0 -5.0 7.0
-5.0 -5.0 8.0
-5.0 -5.0 9.0
-5.0 -5.0 10.0
-5.0 -5.0 11.0
-5.0 -5.0 12.0
-5.0 -5.0 13.0
-5.0 -5.0 14.0
-5.0 -5.0 15.0
-5.0 -5.0 16.0
-5.0 -5.0 17.0
-5.0 -5.0 18.0
-5.0 -5.0 19.0
-5.0 -5.0 20.0
-5.0 -5.0 21.0
-5.0 -5.0 22.0
-5.0 -5.0 23.0
-5.0 -5.0 24.0
-5.0 -5.0 25.0
-5.0 -5.0 26.0
-5.0 -5.0 27.0
-5.0 -5.0 28.0
-5.0 -5.0 29.0
-5.0 -5.0 30.0
-5.0 -5.0 31.0
-5.0 -5.0 32.0
-5.0 -5.0 33.0
-5.0 -5.0 34.0
-5.0 -5.0 35.0
-5.0 -5.0 36.0
-5.0 -5.0 37.0
-5.0 -5.0 38.0
-5.0 -5.0 39.0
-5.0 -5.0 40.0
-5.0 -5.0 41.0
-5.0 -5.0 42.0
-5.0 -5.0 43.0
-5.0 -5.0 44.0
-5.0 -5.0 45.0
-5.0 -5.0 46.0
-5.0 -5.0 47.0
-5.0 -5.0 48.0
-5.0 -5.0 49.0
-4.0 5.0 50.0
-3.0 5.0 50.0
-2.0 5.0 50.0
-1.0 5.0 50.0
0.0 5.0 50.0
1.0 5.0 50.0
2.0 5.0 50.0
3.0 5.0 50.0
4.0 5.0 50.0
5.0 5.0 49.0
5.0 5.0 48.0
5.0 5.0 47.0
5.0 5.0 46.0
5.0 5.0 45.0
5.0 5.0 44.0
5.0 5.0 43.0
5.0 5.0 42.0
5.0 5.0 41.0
5.0 5.0 40.0
5.0 5.0 39.0
5.0 5.0 38.0
5.0 5.0 37.0
5.0 5.0 36.0
5.0 5.0 35.0
5.0 5.0 34.0
5.0 5.0 33.0
5.0 5.0 32.0
5.0 5.0 31.0
5.0 5.0 30.0
5.0 5.0 29.0
5.0 5.0 28.0
5.0 5.0 27.0
5.0 5.0 26.0
5.0 5.0 25.0
5.0 5.0 24.0
5.0 5.0 23.0
5.0 5.0 22.0
5.0 5.0 21.0
5.0 5.0 20.0
5.0 5.0 19.0
5.0 5.0 18.0
5.0 5.0 17.0
5.0 5.0 16.0
5.0 5.0 15.0
5.0 5.0 14.0
5.0 5.0 13.0
5.0 5.0 12.0
5.0 5.0 11.0
5.0 5.0 10.0
5.0 5.0 9.0
5.0 5.0 8.0
5.0 5.0 7.0
5.0 5.0 6.0
5.0 5.0 5.0
5.0 5.0 4.0
5.0 5.0 3.0
5.0 5.0 2.0
5.0 5.0 1.0
4.0 5.0 0.0
3.0 5.0 0.0
2.0 5.0 0.0
1.0 5.0 0.0
0.0 5.0 0.0
-1.0 5.0 0.0
-2.0 5.0 0.0
-3.0 5.0 0.0
-4.0 5.0 0.0
5.0 4.0 0.0
5.0 3.0 0.0
5.0 2.0 0.0
5.0 1.0 0.0
5.0 0.0 0.0
5.0 -1.0 0.0
5.0 -2.0 0.0
5.0 -3.0 0.0
5.0 -4.0 0.0
4.0 -5.0 0.0
3.0 -5.0 0.0
2.0 -5.0 0.0
1.0 -5.0 0.0
0.0 -5.0 0.0
-1.0 -5.0 0.0
-2.0 -5.0 0.0
-3.0 -5.0 0.0
-4.0 -5.0 0.0
4.0 -5.0 50.0
3.0 -5.0 50.0
2.0 -5.0 50.0
1.0 -5.0 50.0
0.0 -5.0 50.0
-1.0 -5.0 50.0
-2.0 -5.0 50.0
-3.0 -5.0 50.0
-4.0 -5.0 50.0
5.0 -5.0 1.0
5.0 -5.0 2.0
5.0 -5.0 3.0
5.0 -5.0 4.0
5.0 -5.0 5.0
5.0 -5.0 6.0
5.0 -5.0 7.0
5.0 -5.0 8.0
5.0 -5.0 9.0
5.0 -5.0 10.0
5.0 -5.0 11.0
5.0 -5.0 12.0
5.0 -5.0 13.0
5.0 -5.0 14.0
5.0 -5.0 15.0
5.0 -5.0 16.0
5.0 -5.0 17.0
5.0 -5.0 18.0
5.0 -5.0 19.0
5.0 -5.0 20.0
5.0 -5.0 21.0
5.0 -5.0 22.0
5.0 -5.0 23.0
5.0 -5.0 24.0
5.0 -5.0 25.0
5.0 -5.0 26.0
5.0 -5.0 27.0
5.0 -5.0 28.0
5.0 -5.0 29.0
5.0 -5.0 30.0
5.0 -5.0 31.0
5.0 -5.0 32.0
5.0 -5.0 33.0
5.0 -5.0 34.0
5.0 -5.0 35.0
5.0 -5.0 36.0
5.0 -5.0 37.0
5.0 -5.0 38.0
5.0 -5.0 39.0
5.0 -5.0 40.0
5.0 -5.0 41.0
5.0 -5.0 42.0
5.0 -5.0 43.0
5.0 -5.0 44.0
5.0 -5.0 45.0
5.0 -5.0 46.0
5.0 -5.0 47.0
5.0 -5.0 48.0
5.0 -5.0 49.0
5.0 -4.0 50.0
5.0 -3.0 50.0
5.0 -2.0 50.0
5.0 -1.0 50.0
5.0 0.0 50.0
5.0 1.0 50.0
5.0 2.0 50.0
5.0 3.0 50.0
5.0 4.0 50.0
-5.0 -4.0 49.0
-5.0 -3.0 49.0
-5.0 -2.0 49.0
-5.0 -1.0 49.0
-5.0 0.0 49.0
-5.0 1.0 49.0
-5.0 2.0 49.0
-5.0 3.0 49.0
-5.0 4.0 49.0
-5.0 -4.0 48.0
-5.0 -3.0 48.0
-5.0 -2.0 48.0
-5.0 -1.0 48.0
-5.0 0.0 48.0
-5.0 1.0 48.0
-5.0 2.0 48.0
-5.0 3.0 48.0
-5.0 4.0 48.0
-5.0 -4.0 47.0
-5.0 -3.0 47.0
-5.0 -2.0 47.0
-5.0 -1.0 47.0
-5.0 0.0 47.0
-5.0 1.0 47.0
-5.0 2.0 47.0
-5.0 3.0 47.0
-5.0 4.0 47.0
-5.0 -4.0 46.0
-5.0 -3.0 46.0
-5.0 -2.0 46.0
-5.0 -1.0 46.0
-5.0 0.0 46.0
-5.0 1.0 46.0
-5.0 2.0 46.0
-5.0 3.0 46.0
-5.0 4.0 46.0
-5.0 -4.0 45.0
-5.0 -3.0 45.0
-5.0 -2.0 45.0
-5.0 -1.0 45.0
-5.0 0.0 45.0
-5.0 1.0 45.0
-5.0 2.0 45.0
-5.0 3.0 45.0
-5.0 4.0 45.0
-5.0 -4.0 44.0
-5.0 -3.0 44.0
-5.0 -2.0 44.0
-5.0 -1.0 44.0
-5.0 0.0 44.0
-5.0 1.0 44.0
-5.0 2.0 44.0
-5.0 3.0 44.0
-5.0 4.0 44.0
-5.0 -4.0 43.0
-5.0 -3.0 43.0
-5.0 -2.0 43.0
-5.0 -1.0 43.0
-5.0 0.0 43.0
-5.0 1.0 43.0
-5.0 2.0 43.0
-5.0 3.0 43.0
-5.0 4.0 43.0
-5.0 -4.0 42.0
-5.0 -3.0 42.0
-5.0 -2.0 42.0
-5.0 -1.0 42.0
-5.0 0.0 42.0
-5.0 1.0 42.0
-5.0 2.0 42.0
-5.0 3.0 42.0
-5.0 4.0 42.0
-5.0 -4.0 41.0
-5.0 -3.0 41.0
-5.0 -2.0 41.0
-5.0 -1.0 41.0
-5.0 0.0 41.0
-5.0 1.0 41.0
-5.0 2.0 41.0
-5.0 3.0 41.0
-5.0 4.0 41.0
-5.0 -4.0 40.0
-5.0 -3.0 40.0
-5.0 -2.0 40.0
-5.0 -1.0 40.0
-5.0 0.0 40.0
-5.0 1.0 40.0
-5.0 2.0 40.0
-5.0 3.0 40.0
-5.0 4.0 40.0
-5.0 -4.0 39.0
-5.0 -3.0 39.0
-5.0 -2.0 39.0
-5.0 -1.0 39.0
-5.0 0.0 39.0
-5.0 1.0 39.0
-5.0 2.0 39.0
-5.0 3.0 39.0
-5.0 4.0 39.0
-5.0 -4.0 38.0
-5.0 -3.0 38.0
-5.0 -2.0 38.0
-5.0 -1.0 38.0
-5.0 0.0 38.0
-5.0 1.0 38.0
-5.0 2.0 38.0
-5.0 3.0 38.0
-5.0 4.0 38.0
-5.0 -4.0 37.0
-5.0 -3.0 37.0
-5.0 -2.0 37.0
-5.0 -1.0 37.0
-5.0 0.0 37.0
-5.0 1.0 37.0
-5.0 2.0 37.0
-5.0 3.0 37.0
-5.0 4.0 37.0
-5.0 -4.0 36.0
-5.0 -3.0 36.0
-5.0 -2.0 36.0
-5.0 -1.0 36.0
-5.0 0.0 36.0
-5.0 1.0 36.0
-5.0 2.0 36.0
-5.0 3.0 36.0
-5.0 4.0 36.0
-5.0 -4.0 35.0
-5.0 -3.0 35.0
-5.0 -2.0 35.0
-5.0 -1.0 35.0
-5.0 0.0 35.0
-5.0 1.0 35.0
-5.0 2.0 35.0
-5.0 3.0 35.0
-5.0 4.0 35.0
-5.0 -4.0 34.0
-5.0 -3.0 34.0
-5.0 -2.0 34.0
-5.0 -1.0 34.0
-5.0 0.0 34.0
-5.0 1.0 34.0
-5.0 2.0 34.0
-5.0 3.0 34.0
-5.0 4.0 34.0
-5.0 -4.0 33.0
-5.0 -3.0 33.0
-5.0 -2.0 33.0
-5.0 -1.0 33.0
-5.0 0.0 33.0
-5.0 1.0 33.0
-5.0 2.0 33.0
-5.0 3.0 33.0
-5.0 4.0 33.0
-5.0 -4.0 32.0
-5.0 -3.0 32.0
-5.0 -2.0 32.0
-5.0 -1.0 32.0
-5.0 0.0 32.0
-5.0 1.0 32.0
-5.0 2.0 32.0
-5.0 3.0 32.0
-5.0 4.0 32.0
-5.0 -4.0 31.0
-5.0 -3.0 31.0
-5.0 -2.0 31.0
-5.0 -1.0 31.0
-5.0 0.0 31.0
-5.0 1.0 31.0
-5.0 2.0 31.0
-5.0 3.0 31.0
-5.0 4.0 31.0
-5.0 -4.0 30.0
-5.0 -3.0 30.0
-5.0 -2.0 30.0
-5.0 -1.0 30.0
-5.0 0.0 30.0
-5.0 1.0 30.0
-5.0 2.0 30.0
-5.0 3.0 30.0
-5.0 4.0 30.0
-5.0 -4.0 29.0
-5.0 -3.0 29.0
-5.0 -2.0 29.0
-5.0 -1.0 29.0
-5.0 0.0 29.0
-5.0 1.0 29.0
-5.0 2.0 29.0
-5.0 3.0 29.0
-5.0 4.0 29.0
-5.0 -4.0 28.0
-5.0 -3.0 28.0
-5.0 -2.0 28.0
-5.0 -1.0 28.0
-5.0 0.0 28.0
-5.0 1.0 28.0
-5.0 2.0 28.0
-5.0 3.0 28.0
-5.0 4.0 28.0
-5.0 -4.0 27.0
-5.0 -3.0 27.0
-5.0 -2.0 27.0
-5.0 -1.0 27.0
-5.0 0.0 27.0
-5.0 1.0 27.0
-5.0 2.0 27.0
-5.0 3.0 27.0
-5.0 4.0 27.0
-5.0 -4.0 26.0
-5.0 -3.0 26.0
-5.0 -2.0 26.0
-5.0 -1.0 26.0
-5.0 0.0 26.0
-5.0 1.0 26.0
-5.0 2.0 26.0
-5.0 3.0 26.0
-5.0 4.0 26.0
-5.0 -4.0 25.0
-5.0 -3.0 25.0
-5.0 -2.0 25.0
-5.0 -1.0 25.0
-5.0 0.0 25.0
-5.0 1.0 25.0
-5.0 2.0 25.0
-5.0 3.0 25.0
-5.0 4.0 25.0
-5.0 -4.0 24.0
-5.0 -3.0 24.0
-5.0 -2.0 24.0
-5.0 -1.0 24.0
-5.0 0.0 24.0
-5.0 1.0 24.0
-5.0 2.0 24.0
-5.0 3.0 24.0
-5.0 4.0 24.0
-5.0 -4.0 23.0
-5.0 -3.0 23.0
-5.0 -2.0 23.0
-5.0 -1.0 23.0
-5.0 0.0 23.0
-5.0 1.0 23.0
-5.0 2.0 23.0
-5.0 3.0 23.0
-5.0 4.0 23.0
-5.0 -4.0 22.0
-5.0 -3.0 22.0
-5.0 -2.0 22.0
-5.0 -1.0 22.0
-5.0 0.0 22.0
-5.0 1.0 22.0
-5.0 2.0 22.0
-5.0 3.0 22.0
-5.0 4.0 22.0
-5.0 -4.0 21.0
-5.0 -3.0 21.0
-5.0 -2.0 21.0
-5.0 -1.0 21.0
-5.0 0.0 21.0
-5.0 1.0 21.0
-5.0 2.0 21.0
-5.0 3.0 21.0
-5.0 4.0 21.0
-5.0 -4.0 20.0
-5.0 -3.0 20.0
-5.0 -2.0 20.0
-5.0 -1.0 20.0
-5.0 0.0 20.0
-5.0 1.0 20.0
-5.0 2.0 20.0
-5.0 3.0 20.0
-5.0 4.0 20.0
-5.0 -4.0 19.0
-5.0 -3.0 19.0
-5.0 -2.0 19.0
-5.0 -1.0 19.0
-5.0 0.0 19.0
-5.0 1.0 19.0
-5.0 2.0 19.0
-5.0 3.0 19.0
-5.0 4.0 19.0
-5.0 -4.0 18.0
-5.0 -3.0 18.0
-5.0 -2.0 18.0
-5.0 -1.0 18.0
-5.0 0.0 18.0
-5.0 1.0 18.0
-5.0 2.0 18.0
-5.0 3.0 18.0
-5.0 4.0 18.0
-5.0 -4.0 17.0
-5.0 -3.0 17.0
-5.0 -2.0 17.0
-5.0 -1.0 17.0
-5.0 0.0 17.0
-5.0 1.0 17.0
-5.0 2.0 17.0
-5.0 3.0 17.0
-5.0 4.0 17.0
-5.0 -4.0 16.0
-5.0 -3.0 16.0
-5.0 -2.0 16.0
-5.0 -1.0 16.0
-5.0 0.0 16.0
-5.0 1.0 16.0
-5.0 2.0 16.0
-5.0 3.0 16.0
-5.0 4.0 16.0
-5.0 -4.0 15.0
-5.0 -3.0 15.0
-5.0 -2.0 15.0
-5.0 -1.0 15.0
-5.0 0.0 15.0
-5.0 1.0 15.0
-5.0 2.0 15.0
-5.0 3.0 15.0
-5.0 4.0 15.0
-5.0 -4.0 14.0
-5.0 -3.0 14.0
-5.0 -2.0 14.0
-5.0 -1.0 14.0
-5.0 0.0 14.0
-5.0 1.0 14.0
-5.0 2.0 14.0
-5.0 3.0 14.0
-5.0 4.0 14.0
-5.0 -4.0 13.0
-5.0 -3.0 13.0
-5.0 -2.0 13.0
-5.0 -1.0 13.0
-5.0 0.0 13.0
-5.0 1.0 13.0
-5.0 2.0 13.0
-5.0 3.0 13.0
-5.0 4.0 13.0
-5.0 -4.0 12.0
-5.0 -3.0 12.0
-5.0 -2.0 12.0
-5.0 -1.0 12.0
-5.0 0.0 12.0
-5.0 1.0 12.0
-5.0 2.0 12.0
-5.0 3.0 12.0
-5.0 4.0 12.0
-5.0 -4.0 11.0
-5.0 -3.0 11.0
-5.0 -2.0 11.0
-5.0 -1.0 11.0
-5.0 0.0 11.0
-5.0 1.0 11.0
-5.0 2.0 11.0
-5.0 3.0 11.0
-5.0 4.0 11.0
-5.0 -4.0 10.0
-5.0 -3.0 10.0
-5.0 -2.0 10.0
-5.0 -1.0 10.0
-5.0 0.0 10.0
-5.0 1.0 10.0
-5.0 2.0 10.0
-5.0 3.0 10.0
-5.0 4.0 10.0
-5.0 -4.0 9.0
-5.0 -3.0 9.0
-5.0 -2.0 9.0
-5.0 -1.0 9.0
-5.0 0.0 9.0
-5.0 1.0 9.0
-5.0 2.0 9.0
-5.0 3.0 9.0
-5.0 4.0 9.0
-5.0 -4.0 8.0
-5.0 -3.0 8.0
-5.0 -2.0 8.0
-5.0 -1.0 8.0
-5.0 0.0 8.0
-5.0 1.0 8.0
-5.0 2.0 8.0
-5.0 3.0 8.0
-5.0 4.0 8.0
-5.0 -4.0 7.0
-5.0 -3.0 7.0
-5.0 -2.0 7.0
-5.0 -1.0 7.0
-5.0 0.0 7.0
-5.0 1.0 7.0
-5.0 2.0 7.0
-5.0 3.0 7.0
-5.0 4.0 7.0
-5.0 -4.0 6.0
-5.0 -3.0 6.0
-5.0 -2.0 6.0
-5.0 -1.0 6.0
-5.0 0.0 6.0
-5.0 1.0 6.0
-5.0 2.0 6.0
-5.0 3.0 6.0
-5.0 4.0 6.0
-5.0 -4.0 5.0
-5.0 -3.0 5.0
-5.0 -2.0 5.0
-5.0 -1.0 5.0
-5.0 0.0 5.0
-5.0 1.0 5.0
-5.0 2.0 5.0
-5.0 3.0 5.0
-5.0 4.0 5.0
-5.0 -4.0 4.0
-5.0 -3.0 4.0
-5.0 -2.0 4.0
-5.0 -1.0 4.0
-5.0 0.0 4.0
-5.0 1.0 4.0
-5.0 2.0 4.0
-5.0 3.0 4.0
-5.0 4.0 4.0
-5.0 -4.0 3.0
-5.0 -3.0 3.0
-5.0 -2.0 3.0
-5.0 -1.0 3.0
-5.0 0.0 3.0
-5.0 1.0 3.0
-5.0 2.0 3.0
-5.0 3.0 3.0
-5.0 4.0 3.0
-5.0 -4.0 2.0
-5.0 -3.0 2.0
-5.0 -2.0 2.0
-5.0 -1.0 2.0
-5.0 0.0 2.0
[...]
CELL_DATA 31305 
FIELD FieldData  2
density 1 31305 float
0.12413123709529972
0.172677639016763
0.07343219045954284
0.0909413912033919
0.21225761153837128
0.10108726123175202
0.15755451134270992
0.07606402410456782
0.061591142187476404
0.09890513737467238
0.08213485280458362
0.1079897052371963
0.12288390599331911
0.0692309752859864
0.11293648725604478
0.08253478301932132
0.3016138605288585
0.25818938122776386
0.09456144689824629
0.07756189076694575
0.06947384396639623
0.10388072215370263
0.08086877260930694
0.16885146557491273
0.020680673262492986
0.06361811030095169
0.09022024574410561
0.14283216489122258
0.1257245505863175
0.17156398499165898
0.24014732183231424
0.1133122759579233
0.11062975712024004
0.1330807456312907
0.12560018561793532
0.09626428807196565
0.12642767738563207
0.12571103282599705
0.07042481802453295
0.08299852045534492
0.0683535597597341
0.06776747406858888
0.04497018502912323
0.08791907258224994
0.14329575887303342
0.062353667679554504
0.20390530424119277
0.19728366113947257
0.1646866057135131
0.2179708847238223
0.17157607308866682
0.11039499414956411
0.21088163565929793
0.1543207736533776
0.13033137400752295
0.24424659794426445
0.08384581085618209
0.2146404112960769
0.09859533093191676
0.10307995593266359
0.07331559793773772
0.1574564149193211
0.08067911545430524
0.07680703620841958
0.14012688620972952
0.19370684510061287
0.15789341210091415
0.15233144149091088
0.0624344000631269
0.09342156632804642
0.36966844866230114
0.34477132509976877
0.23237570879640226
0.4008030125284929
0.3519235349544474
0.20020700187920062
0.4986091056497456
0.36906557775162196
0.16432359733750973
0.0970011772468477
0.1456530892603643
0.13202887924504972
0.06227044385347225
0.04887601369436067
0.09253066275895426
0.1365634320033446
0.10173176892360679
0.18178155284479955
0.17502299817439051
0.13894913964905173
0.1875729769059529
0.13448680662054208
0.19744895927569694
0.19709947105993536
0.14315677950686762
0.167726830157925
0.063250110023992
0.12492436502912277
0.1075595589736235
0.07957751005394667
0.08353328930985958
0.21735761585962202
0.26580587582456455
0.2142428464542236
0.17228250400646775
0.2777116544813971
0.2294370123845033
0.2819569464854228
0.24627133169119297
0.2580354664590297
0.2996189038947462
0.3253486702712024
0.02529263739491453
0.11897290466101874
0.10435698550674125
0.11697830586857208
0.10362450954444574
0.04028564810610507
0.020305452963476397
0.06278893065662315
0.017520188347349256
0.026684454186720257
0.13184787552055727
0.10759421696183602
0.05573373635267013
0.4348787531311921
0.19368887770540016
0.12944862799651952
0.24015103526770346
0.3810290601504643
0.30486877013574676
0.016233527202524908
0.21503782074237612
0.1492101035469074
0.12045828563426034
0.12417273199048133
0.2320240095623955
0.18338533164819484
0.20920145566383555
0.15592428826452437
0.1125748212381834
0.13976449434225885
0.0964830640278596
0.09145103295729498
0.15524952331255945
0.34783146448678054
0.23889875934257807
0.13973573191089647
0.22722279791772787
0.2710214625774983
0.17834233461523769
0.15294086264958387
0.12395663281548512
0.1819195296327046
0.06066824628685886
0.12107114359721066
0.1152292214301096
0.08142071714970653
0.14069084263722556
0.21457155126993815
0.042348021675098026
0.01453786377977958
0.02588468504157981
0.029654129810784337
0.20659840203725333
0.033459097622199015
0.07773542995148494
0.13549423256270307
0.07805305947111575
0.06575766465357653
0.10664434776812706
0.12502019932528521
0.07921112880993343
0.09424122364066288
0.08076384078562683
0.07607017511862224
0.21889278801772236
0.13343232658999554
0.06064094526401055
0.08526904154302518
0.06173266847981809
0.03281039936251245
0.060966074663931794
0.04997216742189796
0.40150371785165645
0.4464049245716503
0.3794754479075897
0.4431363015268367
0.5392635342465806
0.3724103379328592
0.09937093692399472
0.15008443036840222
0.1052754929060058
0.09227321393352565
0.11240201867276227
0.15315208650436926
0.1416306790165871
0.2610473927952242
0.22230926099526238
0.2503366920422176
0.3559870534187194
0.2629520062683735
0.2662002917950459
0.16557173538825642
0.26001787367201473
0.07831603367231747
0.08694487966246266
0.03673847536585552
0.12065627079376874
0.10276244403833708
0.05340549770293196
0.07357530149651803
0.15198920794942852
0.2172543019804949
0.12078622578704991
0.240090245200553
0.19108054183156212
0.13749638334043282
0.06536249313739825
0.07124950236743795
0.332714095712945
0.23925263064204363
0.2898434363139404
0.29374712579493745
0.2517284207836106
0.33396844074421533
0.3944427799411755
0.037045487041872445
0.26961518709937227
0.29121977419351724
0.08212355256498495
0.1357303076730299
0.1672774698723607
0.1609521045738149
0.236908352935519
0.34107909873432163
0.1303044204748147
0.08304634497661958
0.2632480723654048
0.08277746216342476
0.13833406420978464
0.22035727177748612
0.1860534279166497
0.15713989198729011
0.18643149131709266
0.27124701321255174
0.072187164050332
0.07950815732005778
0.09930365015318222
0.17849033228694552
0.13368214501446501
0.09338257362261525
0.0933248261034945
0.12416556925001755
0.16999844821655308
0.14195385995691936
0.12736836280132502
0.1477147160285814
0.19657409746357524
0.06487215162908685
0.06568792668105254
0.059218233557026746
0.17877207047925056
0.06461424546185031
0.05464599020530138
0.06567545329148824
0.03245911691956117
0.047019497042679326
0.0418256399335476
0.2592601210656403
0.21849957892090136
0.17038522666700115
0.18517189365756728
0.2456294286393242
0.15690363328929685
0.2651589734167109
0.26201142875926364
0.023586004271683395
0.07920271866215044
0.01912552974979549
0.029880006206388834
0.07839013127689556
0.058634323655362995
0.07098455140288218
0.062468643824526465
0.048276050217008246
0.04759888768680211
0.06834340700740879
0.048156419388810566
0.05292919133899945
0.0483582355131481
0.07365040583659284
0.05241316915649175
0.1423945125881627
0.0551850974146348
0.19353983749410195
0.19479163463206756
0.28275872689466464
0.2803183310264602
0.2167745885003921
0.2253992488953664
0.17454259538838338
0.20894265411794516
0.11916711074890884
0.24559996895732633
0.15908365243485928
0.1465254659149302
0.1333082627556003
0.05544078335347729
0.057156439331409375
0.1514427232870735
0.10728499591530692
0.07782381279977538
0.10704328420055671
0.16501385706173397
0.24015068713685134
0.3948033971708134
0.2806027313943176
0.2185740948438714
0.23318069575128975
0.30039150314418533
0.20318839200638672
0.22679868251429372
0.1618920696789952
0.15747815432601553
0.13928192317991553
0.20379242758262925
0.15334689484750766
0.252690414957657
0.2896929376410726
0.1822121849781978
0.18018369415946486
0.051731013897092004
0.06683049130134755
0.04865286231261104
0.04388459467707886
0.058612868142696097
0.05023491991597879
0.0627632511430767
0.02374648608727327
0.0475672846670667
0.03381362280552336
0.08318645944622458
0.035547333337621764
0.037876737866210215
0.02912776651463527
0.1609879304033339
0.3077475095424877
0.09589329757832238
0.0818081370967015
0.08477557194789266
0.10377686658550857
0.030161615397605764
0.09869353107217155
0.06675372300221252
0.06533836052056104
0.12740798718007904
0.0639403037029264
0.10719098247799815
0.05990492544225307
0.24187649468717326
0.15257262888580547
0.250125669444897
0.21534780526133965
0.3313074216980986
0.03729783840868787
0.09873331540638947
0.10048657274639164
0.15860781205141147
0.1576532265164332
0.13594201800121897
0.058462026341220504
0.08107192858227676
0.057616047656070125
0.07123174466311473
0.05245497948606105
0.2127135167619048
0.16167491948986676
0.1404303015221204
0.18986537199656853
0.09057252021415947
0.12853480813313298
0.3457176099128936
0.24435564504091442
0.2391194704133947
0.05101215541548672
0.03613769290543416
0.06031080949196562
0.0980970837724251
0.03914299140077896
0.037173271682086166
0.13120534542437232
0.18160875563562753
0.14522248146067404
0.13627836638748675
0.19193380768779286
0.1340086095310167
0.14053411473819846
0.20120224212554394
0.0642859694339372
0.045187941196384446
0.09436029890460096
0.06494538504000658
0.1060553056302401
0.05874501623396216
0.07091683097723049
0.2641898702509288
0.2066253405101964
0.150807692876751
0.1343557000389525
0.03715783589821038
0.12491956812031717
0.1100401468422111
0.15609041011524574
0.0609626692534075
0.042737072600056866
0.10952702377850457
0.0819445248458174
0.14115696343734055
0.06705935716224562
0.08874074374171276
0.16988406852655774
0.1277629041864755
0.11668528484796432
0.16615045197235925
0.24341530932883318
0.13826553141450337
0.18870441611398783
0.26084721059335025
0.25066184177616585
0.32229173090437635
0.2651852919511476
0.3045814228064071
0.2818487539476811
0.3254195219132805
0.3916721123504618
0.364647251467352
0.05465437056339797
0.06685768574495354
0.3463382596472737
0.4127886541782219
0.3539997879612667
0.3844812752389903
0.34538365633110907
0.10598671516000417
0.08601439038797296
0.035888310613442324
0.07821889193017022
0.10107932150632547
0.08192787856006985
0.23868303199145105
0.2148658862363288
0.129665592326054
0.14885571813798779
0.21932003808242503
0.3088500135072677
0.2856342526904786
0.09809367481391808
0.041402394658198866
0.03843616695214301
0.05972110389889077
0.10441242573509592
0.033183892351690294
0.024892513716693057
0.039233479766117046
0.03361968225019772
0.2815886572509395
0.07681632695967532
0.17215327423865515
0.11461305402522133
0.2247397392870738
0.39912529770916916
0.26891065982788465
0.12437023187997112
0.10588926995991779
0.08018269665014893
0.10847059011021465
0.2016193812668792
0.1413209832428445
0.06953755549311962
0.055805974955265236
0.13933151588944775
0.27594884265128394
0.25006962540285504
0.09414752085641559
0.3025100347924201
0.0702012917666793
0.09426902592533035
0.08221724451084277
0.0742528380864115
0.04643656001563512
0.06500668171636272
0.0925876550015609
0.06693622807707648
0.08904536435459746
0.09872386863088303
0.05083948409955014
0.1488152651165873
0.04201789148887297
0.13323674401472999
0.46541849797146545
0.11290916997462754
0.11637950846085506
0.21105993495225847
0.06384009267166181
0.13062636148449464
0.21041394710536304
0.2141458855624295
0.06077521485862597
0.052301779682354485
0.04249091319529567
0.05439653955711139
0.031166768213403917
0.03636495533253194
0.03487861507253342
0.05907159415554945
0.05013630235775742
0.04586671262369907
0.034111166653274294
0.03526573902037421
0.2220049523749667
0.03617596361950647
0.08031524761188692
0.023071183670119563
0.02209285345756125
0.0687261395066512
0.077086985681509
0.15813085345498892
0.23399592594786464
0.25674515157516964
0.12226368194384919
0.08573366366017215
0.16530445474119285
0.11618821411998548
0.07619562405366045
0.08005936943928318
0.07009531137784215
0.015235613748523592
0.05978778056744388
0.07297675830502222
0.06868608028106334
0.08398396047879149
0.19191748842857742
0.06794836965287304
0.06112969748675764
0.05336917882779249
0.06463164270198238
0.12223378187206412
0.16031076465774977
0.11813564647514835
0.07996377207982626
0.11783511087110073
0.1114805318567319
0.0862924187483852
0.08175227965380051
0.09211334042030718
0.04882355957608402
0.03572942687273097
0.030216753923679316
0.05016872977928008
0.03950641631300537
0.044891322744025595
0.046381580054025665
0.06998191090697857
0.1468184006430997
0.21658969908162407
0.23501437465054378
0.3838765913331345
0.26563169854058316
0.329688211605551
0.2812118000729171
0.39545642280519117
0.2639875305725316
0.2130683890536854
0.24769807121663587
0.24095748560210464
0.11232653575433536
0.2647874376145974
0.10098350045657535
0.08558477590546484
0.09793657770822924
0.12256973884513468
0.11450905062058653
0.09001384255077695
0.1653234368060145
0.10881050330432372
0.059618420527798976
0.052537380941527594
0.08734780085374641
0.07380545142614696
0.07253996822644376
0.2513815686047556
0.06230672469610554
0.0521426293264765
0.05614549435461357
0.08733451222300144
0.20047439028276676
0.11589116603767148
0.09242309539750691
0.11218021314646684
0.2949239318558734
0.16240822436104121
0.2511146769339108
0.15070615029321593
0.23631713826775144
0.08324811573187768
0.29245472950574963
0.22509144710137816
0.03430500450018158
0.051368645631437955
0.09844616987694953
0.16460449598809976
0.08563176927500483
0.03715732648198204
0.018246176754087358
0.1154605819016433
0.23488819362326088
0.214400980014825
0.180884169509473
0.15065748516001237
0.10653472707058254
0.161289648627879
0.15227850170367538
0.10155828375707887
0.10523012329342309
0.12469274093851526
0.16691818678936585
0.0879233556306957
0.13060998942542218
0.2586994838848716
0.06559935284864737
0.0784509516460956
0.18208266061714207
0.06460467359850834
0.2374227348023526
0.05585311699182076
0.08260091554127248
0.039645851999005735
0.0822451523499341
0.07373042913125222
0.08505302370456168
0.08782982755446435
0.047343833064067836
0.32261079549857175
0.025223270675256426
0.04180019503152306
0.07263721072441413
0.04081907571914548
0.07865553920328885
0.06313553091889193
0.05766701711515587
0.02505189384749607
0.1070797730632274
0.037577589100430374
0.0374287049386452
0.057606052211673864
0.029049032629765423
0.10686348433924572
0.0781614207676692
0.061625725672645675
0.21096793509253814
0.2942104283910894
0.17808038182473868
0.2262943060454307
0.1717979892274689
0.21268086876194484
0.21258314030144823
0.24504964322175152
0.21875426192095587
0.19528289714477223
0.07819831137751189
0.0443381868591574
0.05512059873984447
0.1671336813888148
0.13530530615348016
0.08803400454937224
0.10325224066349782
0.059628041602394065
0.10324010776835875
0.05895633189891024
0.25909929731427594
0.12143459751738298
0.11980283976252183
0.07182994674114683
0.09542210489461796
0.0740130100903161
0.07717607387026298
0.2114390780485456
0.14436302360551675
0.22418994246788465
0.24558156629559402
0.07948219778371905
0.10700684582492259
0.06870426147845962
0.06378300134231794
0.10802861770857485
0.06112463760358549
0.14382197776605446
0.1747387377269498
0.12283958554085998
0.18052958983923392
0.3171312136952886
0.16708132745513068
0.3391789775434139
0.06999868767388483
0.048620351473331894
0.09371923693351987
0.06416058586928851
0.07334520486481318
0.06226640114491017
0.03963973442370221
0.08866057852989702
0.08058140596238927
0.05515159493252709
0.049443911599850725
0.20383211425778727
0.3040572607336025
0.3259560560670161
0.32596805770700366
0.34895357354603773
0.34162219348386047
0.32574526517744967
0.3253850594169831
0.2079629093129486
0.11508728229675583
0.16574429272750874
0.17838987921701588
0.21078805447787247
0.16866379307798837
0.12274699768731522
0.13237465860587141
0.12509223174777614
0.15968369668244797
0.18833509446329408
0.14504082639604599
0.12410345820214547
0.11969820638746913
0.18274152095627805
0.2591057984504594
0.24711103160647654
0.18852206166390365
0.14718653354513964
0.29428721336988334
0.17547781095355158
0.28686627374552404
0.3207510995484389
0.1291867739674883
0.10015636535701265
0.11654110284102363
0.15969786667405123
0.12362447448386131
0.10206256977486669
0.06850505354604482
0.05496792113825335
0.04485110118955744
0.06753474808988966
0.2356507322014354
0.28299912674048955
0.2817060190104889
0.06134428297062523
0.14157391138908007
0.13998954860335325
0.25530221416521354
0.19475517629974112
0.36492613602345975
0.23989405482115223
0.05422485846213626
0.1061050891143906
0.07067550681875344
0.10423462939080742
0.053223211581866096
0.05388383767755735
0.29220687152168573
0.2889070214945937
0.27335029931177096
0.25433832042793153
0.27820504689104303
0.21867165245825942
0.16711292590263366
0.2803193926092181
0.2430305338174061
0.302428482450129
0.12405877281158538
0.1446679324736391
0.08652127603818421
0.10525216537826587
0.20011702052433364
0.1305269424155795
0.13358932290681672
0.16003534478932208
0.21583407014212055
0.09570414709041891
0.08755103086883619
0.04453090160551444
0.06707598597012815
0.07000483984412274
0.09510828875291173
0.0808035959588137
0.06486522437224648
0.3848769492477256
0.15623928031686538
0.1382653007038833
0.07857465052331296
0.11309188268027887
0.08636405651964944
0.0791049415426322
0.17806381931262047
0.05168305862964255
0.12447204716200168
0.09977838853213646
0.05695069374797318
0.10463722097428443
0.15644171008953678
0.06669016803870133
0.08543905725990306
0.05241988655649711
0.036863746688359206
0.14140567633252746
0.033442134476554496
0.040830458495382055
0.2255120520021955
0.1469309645954746
0.17558290563569606
0.10731886951903676
0.12301512565571773
0.07072111974808604
0.057164125352167416
0.09600335440538489
0.18412536765784496
0.11115863571592034
0.07687132199078425
0.2975002524828818
0.20758364277456273
0.199562153185823
0.34741107716721525
0.15298658163991147
0.14134860381565342
0.2789215452360001
0.22700486650193366
0.4010040611645745
0.3349127197803883
0.3689270756551606
0.15785798829809802
0.22262570609878668
0.19374416773103964
0.14060272133155166
0.152943572274866
0.19466214331620632
0.1401491673591145
0.23322522852080618
0.17163262409552676
0.18168313766980845
0.2175306343467282
0.02595338651166087
0.016633642821596323
0.20929199227378667
0.13150455416883378
0.012200220562545952
0.02743435953353455
0.04823776713638007
0.06090802642172697
0.07192758440025382
0.0844731568278598
0.07302488060071727
0.19757475649028158
0.30592678945979096
0.19298865516172295
0.2880009953336673
0.10956810554443443
0.20184818260723753
0.17884922030069886
0.18102075457470712
0.12796749578169234
0.14537001482925552
0.13793181656233297
0.06183698552269222
0.1289417891486594
0.06595472107133203
0.21452124687908902
0.06318803592621049
0.290567374857259
0.3127479639601848
0.32136478357732157
0.29844608472009027
0.27910050890695537
0.27222761541582485
0.09090273746184957
0.06073019712516234
0.04188813241656549
0.028924831366289653
0.1626407848535536
0.13585001123984322
0.0830257846014002
0.5035496659580369
0.2811687613444627
0.3196583051597488
0.40244115787814744
0.33116108566746466
0.01769930224531202
0.06292994938790876
0.2865945403570935
0.062058037948129495
0.1421647927592207
0.1445337425341859
0.02323316764027161
0.07155648298872863
0.052221582860853405
0.11527072820492248
0.05693192466518005
0.10658873236089256
0.0592291377628844
0.24265536042716124
0.11871828941847148
0.1278599595805502
0.30684651685362185
0.043959563357670726
0.12478156407198841
0.34129654613469634
0.16069879709412352
0.24331619288874787
0.24913167379597745
0.08834152878594476
0.11947467622796003
0.09424582900263476
0.16693380703390492
0.024269305661748113
0.02206588247418088
0.029296606355797644
0.012114374713270901
0.10992399005794583
0.0245550760518295
0.021878432908867807
0.024772708854036603
0.42519947885563336
0.3691556529384998
0.1786379560271874
0.22825616785186617
0.3695481487509988
0.3185738389266401
0.29648465193497975
0.29567487167645695
0.23742615343100287
0.23289011852396793
0.18730358863842717
0.29491613993815036
0.09191640695069198
0.0947564173045175
0.05762808346369355
0.08304152244004584
0.05686685760598337
0.12470543022620388
0.06934532465297157
0.11631023560809554
0.13331661439429177
0.134530878701811
0.07393579077213926
0.1091711358487923
0.11910998461911383
0.07653323157545028
0.07955002439456194
0.08168419514851204
0.13090886523744333
0.0989161881612379
0.05287704066454937
0.09445084689318968
0.15702632347516698
0.21254479042770835
0.15303463364926337
0.15520878437489086
0.10038357770931909
0.11444218018007003
0.1276019768495375
0.08700340580977166
0.10053346485747162
0.30414436358518393
0.2715424127137399
0.22047221543911336
0.211518351808895
0.25094171368274826
0.08441614132706148
0.0855175825156694
0.1212862061950751
0.08576828237021772
0.05461794447145626
0.06024248031722608
0.06602067583361267
0.17787759679166987
0.09796835897149415
0.05789208026329134
0.05438530148183045
0.3202171451492635
0.040573961529701316
0.2584558977449737
0.27181747103904713
0.28768606728824797
0.3168860724230238
0.07006523127638033
0.07694890869206962
0.04847385489170629
0.07164511385477147
0.04258616618486119
0.10679080036104663
0.11124619033198695
0.18616023956014022
0.20281635030335696
0.21520620858434739