# vtk DataFile Version 1.0
Bar_TO_3D
ASCII
DATASET UNSTRUCTURED_GRID
POINTS 6348 float 
-5.0 -5.0 50.0
-5.0 5.0 50.0
-5.0 5.0 0.0
-5.0 -5.0 0.0
5.0 5.0 50.0
5.0 5.0 0.0
5.0 -5.0 0.0
5.0 -5.0 50.0
-5.0 -4.0 50.0
-5.0 -3.0 50.0
-5.0 -2.0 50.0
-5.0 -1.0 50.0
-5.0 0.0 50.0
-5.0 1.0 50.0
-5.0 2.0 50.0
-5.0 3.0 50.0
-5.0 4.0 50.0
-5.0 5.0 49.0
-5.0 5.0 48.0
-5.0 5.0 47.0
-5.0 5.0 46.0
-5.0 5.0 45.0
-5.0 5.0 44.0
-5.0 5.0 43.0
-5.0 5.0 42.0
-5.0 5.0 41.0
-5.0 5.0 40.0
-5.0 5.0 39.0
-5.0 5.0 38.0
-5.0 5.0 37.0
-5.0 5.0 36.0
-5.0 5.0 35.0
-5.0 5.0 34.0
-5.0 5.0 33.0
-5.0 5.0 32.0
-5.0 5.0 31.0
-5.0 5.0 30.0
-5.0 5.0 29.0
-5.0 5.0 28.0
-5.0 5.0 27.0
-5.0 5.0 26.0
-5.0 5.0 25.0
-5.0 5.0 24.0
-5.0 5.0 23.0
-5.0 5.0 22.0
-5.0 5.0 21.0
-5.0 5.0 20.0
-5.0 5.0 19.0
-5.0 5.0 18.0
-5.0 5.0 17.0
-5.0 5.0 16.0
-5.0 5.0 15.0
-5.0 5.0 14.0
-5.0 5.0 13.0
-5.0 5.0 12.0
-5.0 5.0 11.0
-5.0 5.0 10.0
-5.0 5.0 9.0
-5.0 5.0 8.0
-5.0 5.0 7.0
-5.0 5.0 6.0
-5.0 5.0 5.0
-5.0 5.0 4.0
-5.0 5.0 3.0
-5.0 5.0 2.0
-5.0 5.0 1.0
-5.0 4.0 0.0
-5.0 3.0 0.0
-5.0 2.0 0.0
-5.0 1.0 0.0
-5.0 0.0 0.0
-5.0 -1.0 0.0
-5.0 -2.0 0.0
-5.0 -3.0 0.0
-5.0 -4.0 0.0
-5.0 -5.0 1.0
-5.0 -5.0 2.0
-5.0 -5.0 3.0
-5.0 -5.0 4.0
-5.0 -5.0 5.0
-5.0 -5.0 6.0
-5.0 -5.0 7.0
-5.0 -5.0 8.0
-5.0 -5.0 9.0
-5.0 -5.0 10.0
-5.0 -5.0 11.0
-5.0 -5.0 12.0
-5.0 -5.0 13.0
-5.0 -5.0 14.0
-5.0 -5.0 15.0
-5.0 -5.0 16.0
-5.0 -5.0 17.0
-5.0 -5.0 18.0
-5.0 -5.0 19.0
-5.0 -5.0 20.0
-5.0 -5.0 21.0
-5.0 -5.0 22.0
-5.0 -5.0 23.0
-5.0 -5.0 24.0
-5.0 -5.0 25.0
-5.0 -5.0 26.0
-5.0 -5.0 27.0
-5.0 -5.0 28.0
-5.0 -5.0 29.0
-5.0 -5.0 30.0
-5.0 -5.0 31.0
-5.0 -5.0 32.0
-5.0 -5.0 33.0
-5.0 -5.0 34.0
-5.0 -5.0 35.0
-5.0 -5.0 36.0
-5.0 -5.0 37.0
-5.0 -5.0 38.0
-5.0 -5.0 39.0
-5.0 -5.0 40.0
-5.0 -5.0 41.0
-5.0 -5.0 42.0
-5.0 -5.0 43.0
-5.0 -5.0 44.0
-5.0 -5.0 45.0
-5.0 -5.0 46.0
-5.0 -5.0 47.0
-5.0 -5.0 48.0
-5.0 -5.0 49.0
-4.0 5.0 50.0
-3.0 5.0 50.0
-2.0 5.0 50.0
-1.0 5.0 50.0
0.0 5.0 50.0
1.0 5.0 50.0
2.0 5.0 50.0
3.0 5.0 50.0
4.0 5.0 50.0
5.0 5.0 49.0
5.0 5.0 48.0
5.0 5.0 47.0
5.0 5.0 46.0
5.0 5.0 45.0
5.0 5.0 44.0
5.0 5.0 43.0
5.0 5.0 42.0
5.0 5.0 41.0
5.0 5.0 40.0
5.0 5.0 39.0
5.0 5.0 38.0
5.0 5.0 37.0
5.0 5.0 36.0
5.0 5.0 35.0
5.0 5.0 34.0
5.0 5.0 33.0
5.0 5.0 32.0
5.0 5.0 31.0
5.0 5.0 30.0
5.0 5.0 29.0
5.0 5.0 28.0
5.0 5.0 27.0
5.0 5.0 26.0
5.0 5.0 25.0
5.0 5.0 24.0
5.0 5.0 23.0
5.0 5.0 22.0
5.0 5.0 21.0
5.0 5.0 20.0
5.0 5.0 19.0
5.0 5.0 18.0
5.0 5.0 17.0
5.0 5.0 16.0
5.0 5.0 15.0
5.0 5.0 14.0
5.0 5.0 13.0
5.0 5.0 12.0
5.0 5.0 11.0
5.0 5.0 10.0
5.0 5.0 9.0
5.0 5.0 8.0
5.0 5.0 7.0
5.0 5.0 6.0
5.0 5.0 5.0
5.0 5.0 4.0
5.0 5.0 3.0
5.0 5.0 2.0
5.0 5.0 1.0
4.0 5.0 0.0
3.0 5.0 0.0
2.0 5.0 0.0
1.0 5.0 0.0
0.0 5.0 0.0
-1.0 5.0 0.0
-2.0 5.0 0.0
-3.0 5.0 0.0
-4.0 5.0 0.0
5.0 4.0 0.0
5.0 3.0 0.0
5.0 2.0 0.0
5.0 1.0 0.0
5.0 0.0 0.0
5.0 -1.0 0.0
5.0 -2.0 0.0
5.0 -3.0 0.0
5.0 -4.0 0.0
4.0 -5.0 0.0
3.0 -5.0 0.0
2.0 -5.0 0.0
1.0 -5.0 0.0
0.0 -5.0 0.0
-1.0 -5.0 0.0
-2.0 -5.0 0.0
-3.0 -5.0 0.0
-4.0 -5.0 0.0
4.0 -5.0 50.0
3.0 -5.0 50.0
2.0 -5.0 50.0
1.0 -5.0 50.0
0.0 -5.0 50.0
-1.0 -5.0 50.0
-2.0 -5.0 50.0
-3.0 -5.0 50.0
-4.0 -5.0 50.0
5.0 -5.0 1.0
5.0 -5.0 2.0
5.0 -5.0 3.0
5.0 -5.0 4.0
5.0 -5.0 5.0
5.0 -5.0 6.0
5.0 -5.0 7.0
5.0 -5.0 8.0
5.0 -5.0 9.0
5.0 -5.0 10.0
5.0 -5.0 11.0
5.0 -5.0 12.0
5.0 -5.0 13.0
5.0 -5.0 14.0
5.0 -5.0 15.0
5.0 -5.0 16.0
5.0 -5.0 17.0
5.0 -5.0 18.0
5.0 -5.0 19.0
5.0 -5.0 20.0
5.0 -5.0 21.0
5.0 -5.0 22.0
5.0 -5.0 23.0
5.0 -5.0 24.0
5.0 -5.0 25.0
5.0 -5.0 26.0
5.0 -5.0 27.0
5.0 -5.0 28.0
5.0 -5.0 29.0
5.0 -5.0 30.0
5.0 -5.0 31.0
5.0 -5.0 32.0
5.0 -5.0 33.0
5.0 -5.0 34.0
5.0 -5.0 35.0
5.0 -5.0 36.0
5.0 -5.0 37.0
5.0 -5.0 38.0
5.0 -5.0 39.0
5.0 -5.0 40.0
5.0 -5.0 41.0
5.0 -5.0 42.0
5.0 -5.0 43.0
5.0 -5.0 44.0
5.0 -5.0 45.0
5.0 -5.0 46.0
5.0 -5.0 47.0
5.0 -5.0 48.0
5.0 -5.0 49.0
5.0 -4.0 50.0
5.0 -3.0 50.0
5.0 -2.0 50.0
5.0 -1.0 50.0
5.0 0.0 50.0
5.0 1.0 50.0
5.0 2.0 50.0
5.0 3.0 50.0
5.0 4.0 50.0
-5.0 -4.0 49.0
-5.0 -3.0 49.0
-5.0 -2.0 49.0
-5.0 -1.0 49.0
-5.0 0.0 49.0
-5.0 1.0 49.0
-5.0 2.0 49.0
-5.0 3.0 49.0
-5.0 4.0 49.0
-5.0 -4.0 48.0
-5.0 -3.0 48.0
-5.0 -2.0 48.0
-5.0 -1.0 48.0
-5.0 0.0 48.0
-5.0 1.0 48.0
-5.0 2.0 48.0
-5.0 3.0 48.0
-5.0 4.0 48.0
-5.0 -4.0 47.0
-5.0 -3.0 47.0
-5.0 -2.0 47.0
-5.0 -1.0 47.0
-5.0 0.0 47.0
-5.0 1.0 47.0
-5.0 2.0 47.0
-5.0 3.0 47.0
-5.0 4.0 47.0
-5.0 -4.0 46.0
-5.0 -3.0 46.0
-5.0 -2.0 46.0
-5.0 -1.0 46.0
-5.0 0.0 46.0
-5.0 1.0 46.0
-5.0 2.0 46.0
-5.0 3.0 46.0
-5.0 4.0 46.0
-5.0 -4.0 45.0
-5.0 -3.0 45.0
-5.0 -2.0 45.0
-5.0 -1.0 45.0
-5.0 0.0 45.0
-5.0 1.0 45.0
-5.0 2.0 45.0
-5.0 3.0 45.0
-5.0 4.0 45.0
-5.0 -4.0 44.0
-5.0 -3.0 44.0
-5.0 -2.0 44.0
-5.0 -1.0 44.0
-5.0 0.0 44.0
-5.0 1.0 44.0
-5.0 2.0 44.0
-5.0 3.0 44.0
-5.0 4.0 44.0
-5.0 -4.0 43.0
-5.0 -3.0 43.0
-5.0 -2.0 43.0
-5.0 -1.0 43.0
-5.0 0.0 43.0
-5.0 1.0 43.0
-5.0 2.0 43.0
-5.0 3.0 43.0
-5.0 4.0 43.0
-5.0 -4.0 42.0
-5.0 -3.0 42.0
-5.0 -2.0 42.0
-5.0 -1.0 42.0
-5.0 0.0 42.0
-5.0 1.0 42.0
-5.0 2.0 42.0
-5.0 3.0 42.0
-5.0 4.0 42.0
-5.0 -4.0 41.0
-5.0 -3.0 41.0
-5.0 -2.0 41.0
-5.0 -1.0 41.0
-5.0 0.0 41.0
-5.0 1.0 41.0
-5.0 2.0 41.0
-5.0 3.0 41.0
-5.0 4.0 41.0
-5.0 -4.0 40.0
-5.0 -3.0 40.0
-5.0 -2.0 40.0
-5.0 -1.0 40.0
-5.0 0.0 40.0
-5.0 1.0 40.0
-5.0 2.0 40.0
-5.0 3.0 40.0
-5.0 4.0 40.0
-5.0 -4.0 39.0
-5.0 -3.0 39.0
-5.0 -2.0 39.0
-5.0 -1.0 39.0
-5.0 0.0 39.0
-5.0 1.0 39.0
-5.0 2.0 39.0
-5.0 3.0 39.0
-5.0 4.0 39.0
-5.0 -4.0 38.0
-5.0 -3.0 38.0
-5.0 -2.0 38.0
-5.0 -1.0 38.0
-5.0 0.0 38.0
-5.0 1.0 38.0
-5.0 2.0 38.0
-5.0 3.0 38.0
-5.0 4.0 38.0
-5.0 -4.0 37.0
-5.0 -3.0 37.0
-5.0 -2.0 37.0
-5.0 -1.0 37.0
-5.0 0.0 37.0
-5.0 1.0 37.0
-5.0 2.0 37.0
-5.0 3.0 37.0
-5.0 4.0 37.0
-5.0 -4.0 36.0
-5.0 -3.0 36.0
-5.0 -2.0 36.0
-5.0 -1.0 36.0
-5.0 0.0 36.0
-5.0 1.0 36.0
-5.0 2.0 36.0
-5.0 3.0 36.0
-5.0 4.0 36.0
-5.0 -4.0 35.0
-5.0 -3.0 35.0
-5.0 -2.0 35.0
-5.0 -1.0 35.0
-5.0 0.0 35.0
-5.0 1.0 35.0
-5.0 2.0 35.0
-5.0 3.0 35.0
-5.0 4.0 35.0
-5.0 -4.0 34.0
-5.0 -3.0 34.0
-5.0 -2.0 34.0
-5.0 -1.0 34.0
-5.0 0.0 34.0
-5.0 1.0 34.0
-5.0 2.0 34.0
-5.0 3.0 34.0
-5.0 4.0 34.0
-5.0 -4.0 33.0
-5.0 -3.0 33.0
-5.0 -2.0 33.0
-5.0 -1.0 33.0
-5.0 0.0 33.0
-5.0 1.0 33.0
-5.0 2.0 33.0
-5.0 3.0 33.0
-5.0 4.0 33.0
-5.0 -4.0 32.0
-5.0 -3.0 32.0
-5.0 -2.0 32.0
-5.0 -1.0 32.0
-5.0 0.0 32.0
-5.0 1.0 32.0
-5.0 2.0 32.0
-5.0 3.0 32.0
-5.0 4.0 32.0
-5.0 -4.0 31.0
-5.0 -3.0 31.0
-5.0 -2.0 31.0
-5.0 -1.0 31.0
-5.0 0.0 31.0
-5.0 1.0 31.0
-5.0 2.0 31.0
-5.0 3.0 31.0
-5.0 4.0 31.0
-5.0 -4.0 30.0
-5.0 -3.0 30.0
-5.0 -2.0 30.0
-5.0 -1.0 30.0
-5.0 0.0 30.0
-5.0 1.0 30.0
-5.0 2.0 30.0
-5.0 3.0 30.0
-5.0 4.0 30.0
-5.0 -4.0 29.0
-5.0 -3.0 29.0
-5.0 -2.0 29.0
-5.0 -1.0 29.0
-5.0 0.0 29.0
-5.0 1.0 29.0
-5.0 2.0 29.0
-5.0 3.0 29.0
-5.0 4.0 29.0
-5.0 -4.0 28.0
-5.0 -3.0 28.0
-5.0 -2.0 28.0
-5.0 -1.0 28.0
-5.0 0.0 28.0
-5.0 1.0 28.0
-5.0 2.0 28.0
-5.0 3.0 28.0
-5.0 4.0 28.0
-5.0 -4.0 27.0
-5.0 -3.0 27.0
-5.0 -2.0 27.0
-5.0 -1.0 27.0
-5.0 0.0 27.0
-5.0 1.0 27.0
-5.0 2.0 27.0
-5.0 3.0 27.0
-5.0 4.0 27.0
-5.0 -4.0 26.0
-5.0 -3.0 26.0
-5.0 -2.0 26.0
-5.0 -1.0 26.0
-5.0 0.0 26.0
-5.0 1.0 26.0
-5.0 2.0 26.0
-5.0 3.0 26.0
-5.0 4.0 26.0
-5.0 -4.0 25.0
-5.0 -3.0 25.0
-5.0 -2.0 25.0
-5.0 -1.0 25.0
-5.0 0.0 25.0
-5.0 1.0 25.0
-5.0 2.0 25.0
-5.0 3.0 25.0
-5.0 4.0 25.0
-5.0 -4.0 24.0
-5.0 -3.0 24.0
-5.0 -2.0 24.0
-5.0 -1.0 24.0
-5.0 0.0 24.0
-5.0 1.0 24.0
-5.0 2.0 24.0
-5.0 3.0 24.0
-5.0 4.0 24.0
-5.0 -4.0 23.0
-5.0 -3.0 23.0
-5.0 -2.0 23.0
-5.0 -1.0 23.0
-5.0 0.0 23.0
-5.0 1.0 23.0
-5.0 2.0 23.0
-5.0 3.0 23.0
-5.0 4.0 23.0
-5.0 -4.0 22.0
-5.0 -3.0 22.0
-5.0 -2.0 22.0
-5.0 -1.0 22.0
-5.0 0.0 22.0
-5.0 1.0 22.0
-5.0 2.0 22.0
-5.0 3.0 22.0
-5.0 4.0 22.0
-5.0 -4.0 21.0
-5.0 -3.0 21.0
-5.0 -2.0 21.0
-5.0 -1.0 21.0
-5.0 0.0 21.0
-5.0 1.0 21.0
-5.0 2.0 21.0
-5.0 3.0 21.0
-5.0 4.0 21.0
-5.0 -4.0 20.0
-5.0 -3.0 20.0
-5.0 -2.0 20.0
-5.0 -1.0 20.0
-5.0 0.0 20.0
-5.0 1.0 20.0
-5.0 2.0 20.0
-5.0 3.0 20.0
-5.0 4.0 20.0
-5.0 -4.0 19.0
-5.0 -3.0 19.0
-5.0 -2.0 19.0
-5.0 -1.0 19.0
-5.0 0.0 19.0
-5.0 1.0 19.0
-5.0 2.0 19.0
-5.0 3.0 19.0
-5.0 4.0 19.0
-5.0 -4.0 18.0
-5.0 -3.0 18.0
-5.0 -2.0 18.0
-5.0 -1.0 18.0
-5.0 0.0 18.0
-5.0 1.0 18.0
-5.0 2.0 18.0
-5.0 3.0 18.0
-5.0 4.0 18.0
-5.0 -4.0 17.0
-5.0 -3.0 17.0
-5.0 -2.0 17.0
-5.0 -1.0 17.0
-5.0 0.0 17.0
-5.0 1.0 17.0
-5.0 2.0 17.0
-5.0 3.0 17.0
-5.0 4.0 17.0
-5.0 -4.0 16.0
-5.0 -3.0 16.0
-5.0 -2.0 16.0
-5.0 -1.0 16.0
-5.0 0.0 16.0
-5.0 1.0 16.0
-5.0 2.0 16.0
-5.0 3.0 16.0
-5.0 4.0 16.0
-5.0 -4.0 15.0
-5.0 -3.0 15.0
-5.0 -2.0 15.0
-5.0 -1.0 15.0
-5.0 0.0 15.0
-5.0 1.0 15.0
-5.0 2.0 15.0
-5.0 3.0 15.0
-5.0 4.0 15.0
-5.0 -4.0 14.0
-5.0 -3.0 14.0
-5.0 -2.0 14.0
-5.0 -1.0 14.0
-5.0 0.0 14.0
-5.0 1.0 14.0
-5.0 2.0 14.0
-5.0 3.0 14.0
-5.0 4.0 14.0
-5.0 -4.0 13.0
-5.0 -3.0 13.0
-5.0 -2.0 13.0
-5.0 -1.0 13.0
-5.0 0.0 13.0
-5.0 1.0 13.0
-5.0 2.0 13.0
-5.0 3.0 13.0
-5.0 4.0 13.0
-5.0 -4.0 12.0
-5.0 -3.0 12.0
-5.0 -2.0 12.0
-5.0 -1.0 12.0
-5.0 0.0 12.0
-5.0 1.0 12.0
-5.0 2.0 12.0
-5.0 3.0 12.0
-5.0 4.0 12.0
-5.0 -4.0 11.0
-5.0 -3.0 11.0
-5.0 -2.0 11.0
-5.0 -1.0 11.0
-5.0 0.0 11.0
-5.0 1.0 11.0
-5.0 2.0 11.0
-5.0 3.0 11.0
-5.0 4.0 11.0
-5.0 -4.0 10.0
-5.0 -3.0 10.0
-5.0 -2.0 10.0
-5.0 -1.0 10.0
-5.0 0.0 10.0
-5.0 1.0 10.0
-5.0 2.0 10.0
-5.0 3.0 10.0
-5.0 4.0 10.0
-5.0 -4.0 9.0
-5.0 -3.0 9.0
-5.0 -2.0 9.0
-5.0 -1.0 9.0
-5.0 0.0 9.0
-5.0 1.0 9.0
-5.0 2.0 9.0
-5.0 3.0 9.0
-5.0 4.0 9.0
-5.0 -4.0 8.0
-5.0 -3.0 8.0
-5.0 -2.0 8.0
-5.0 -1.0 8.0
-5.0 0.0 8.0
-5.0 1.0 8.0
-5.0 2.0 8.0
-5.0 3.0 8.0
-5.0 4.0 8.0
-5.0 -4.0 7.0
-5.0 -3.0 7.0
-5.0 -2.0 7.0
-5.0 -1.0 7.0
-5.0 0.0 7.0
-5.0 1.0 7.0
-5.0 2.0 7.0
-5.0 3.0 7.0
-5.0 4.0 7.0
-5.0 -4.0 6.0
-5.0 -3.0 6.0
-5.0 -2.0 6.0
-5.0 -1.0 6.0
-5.0 0.0 6.0
-5.0 1.0 6.0
-5.0 2.0 6.0
-5.0 3.0 6.0
-5.0 4.0 6.0
-5.0 -4.0 5.0
-5.0 -3.0 5.0
-5.0 -2.0 5.0
-5.0 -1.0 5.0
-5.0 0.0 5.0
-5.0 1.0 5.0
-5.0 2.0 5.0
-5.0 3.0 5.0
-5.0 4.0 5.0
-5.0 -4.0 4.0
-5.0 -3.0 4.0
-5.0 -2.0 4.0
-5.0 -1.0 4.0
-5.0 0.0 4.0
-5.0 1.0 4.0
-5.0 2.0 4.0
-5.0 3.0 4.0
-5.0 4.0 4.0
-5.0 -4.0 3.0
-5.0 -3.0 3.0
-5.0 -2.0 3.0
-5.0 -1.0 3.0
-5.0 0.0 3.0
-5.0 1.0 3.0
-5.0 2.0 3.0
-5.0 3.0 3.0
-5.0 4.0 3.0
-5.0 -4.0 2.0
-5.0 -3.0 2.0
-5.0 -2.0 2.0
-5.0 -1.0 2.0
-5.0 0.0 2.0
[...]
CELL_DATA 31305 
FIELD FieldData  2
density 1 31305 float
0.2769487610602909
0.2801000386553437
0.3020758044453363
0.3500033692315603
0.14191798482988732
0.2401795275839407
0.12673087967958263
0.24094669456279608
0.059079805503596816
0.055261886812698544
0.1031989561496128
0.08895855872889333
0.06719994440892434
0.08298294502586566
0.2748488388075421
0.22980358614022373
0.1428231905224699
0.22778342921198846
0.27590471983030673
0.18734441607292396
0.3219979418092745
0.4306052295833556
0.3281790683026564
0.24329413453417637
0.010095671265284597
0.16584016424462475
0.13132308490339184
0.1363684255319985
0.11172345458116281
0.2133866095069693
0.1540104894854503
0.4784644989562773
0.3691207185285514
0.4239020249584511
0.3609841491184274
0.4500522768340216
0.404963403069317
0.23562961320433606
0.27666701940657373
0.25054562350334264
0.2850797923889713
0.23713550098509115
0.36165936469514237
0.3319710103826436
0.15018757977397795
0.3664378489060495
0.06699598014964002
0.06432610487389649
0.06878040926821095
0.07111082823895222
0.06095900848802398
0.05956614771653788
0.25173908274006257
0.15966155078092892
0.06172922796502943
0.2621205339749057
0.14351914936483734
0.15182661254797533
0.15239175075886258
0.11939495556138774
0.27576290560656996
0.16648911173250108
0.21190450527502064
0.228717384623483
0.1850480955573936
0.17765105418116725
0.17320300319787557
0.12833483118887842
0.30893169284049815
0.18014491375020286
0.38497556810336253
0.39648571638547264
0.21007379342517285
0.046799327260328746
0.09527419491501707
0.0947375768113442
0.07762838237789844
0.07091004284348743
0.05448380733786347
0.17428583085285052
0.12273898453152386
0.08549647410639853
0.08378926202442659
0.10728315578495808
0.12647127994561963
0.14314425682560972
0.07285224122463771
0.13277338397562
0.2607064551203108
0.0955908896452375
0.08104904266597034
0.16168515441175882
0.09117515602111476
0.14002202302199324
0.36374930187245613
0.2461309432632815
0.3946514292094401
0.22444756737617752
0.4618419048773156
0.049476568714821416
0.06896043996543443
0.0805404616358726
0.06692656667669063
0.06262908263679365
0.05245445735014314
0.3091528822114322
0.25075087448504835
0.32926483180165156
0.2743756597294196
0.27890106634354583
0.32375183670805374
0.32282005318740864
0.24238131108576796
0.22021559875795058
0.2630011100090564
0.32422995610906996
0.21312668064938167
0.3008045537105011
0.187378574437324
0.1067744370961177
0.1904499586217559
0.14453031918881884
0.21073828694883376
0.192530312801338
0.140442608764086
0.12695237083762598
0.24932306859184233
0.02468577056316648
0.19074912028091592
0.22343376270188817
0.20965368968539658
0.06707566341537424
0.1337230248750679
0.10699621968586519
0.3714587135145699
0.45219399360346707
0.2635540899778894
0.4057239319066252
0.27885137900497015
0.3564199416890305
0.2733274272635314
0.3596980199651047
0.44605402438801617
0.3442659315815131
0.29066965744010587
0.2386694517516742
0.22239099362191733
0.18144612800912413
0.23843153395889785
0.277369146203625
0.19069345733702894
0.15050040726984226
0.1689477000315996
0.1707755402598582
0.018571234854188285
0.04992174749205592
0.04582578357599633
0.024849475891545538
0.27056739212299186
0.2153078313336233
0.10531665725337733
0.11365122120029172
0.02695081050093702
0.13458771706556114
0.12438614219146939
0.1227001254165777
0.04295749631908454
0.04928292961699361
0.03831580947082282
0.05976250917398738
0.21987718831809308
0.18212126309305093
0.11867015237449599
0.21598015938638512
0.10059548896177845
0.11477360692011965
0.04862549834153512
0.022836073631251
0.10003570096866056
0.1983678264334671
0.4779084453189808
0.3933421125640653
0.3617891074617439
0.3848766690625479
0.15087869417681757
0.19887164843201152
0.19141431917389784
0.19213717046355144
0.15892975960872882
0.14261378617708723
0.42265446730384576
0.3369452786185241
0.4194367940979685
0.307667702906105
0.31868349479750463
0.3808206241950225
0.4504715535661135
0.30226005977405584
0.3445139288728192
0.30424326766983384
0.16943673786180127
0.20744784419417828
0.14778109519030017
0.029084964773101813
0.18728115126762998
0.19551381457430328
0.15049467204300893
0.24259874710984855
0.11675588050264943
0.010792289796350808
0.2448730886032377
0.10421297982276645
0.09461976893970399
0.24644610338880674
0.10497771634250037
0.24017905565429576
0.1874169966684353
0.16281479107582167
0.3321891079881588
0.2998464645298751
0.3860632694774076
0.24387061465434431
0.3382991820317806
0.2805350419835303
0.3191420788383366
0.3595805715005497
0.3954019227664629
0.012965483515192867
0.32870995129170044
0.2002170647314674
0.370714774295182
0.38889577310646706
0.34650106441693085
0.341066637935073
0.2532541065999741
0.18325475256727095
0.36191811453012307
0.13575677174635098
0.3580848317177795
0.2746359628781336
0.39267009206720943
0.25151848493447243
0.341534879073151
0.35925350967209807
0.1632219637897941
0.4059194977977196
0.24084656994674727
0.12061270828313718
0.14593964882801824
0.17845719187005182
0.10004329925789975
0.09735929306695175
0.4041397608045521
0.07726374701701481
0.19285179030628788
0.06546332524134676
0.04808283914544612
0.053072033901029735
0.09743895546548548
0.33166933674600707
0.4024943729130452
0.2719106492753719
0.044391771646103986
0.08446534184134888
0.060045965914306235
0.0649808488881609
0.09124439156761668
0.1380008291389407
0.1148749675343804
0.26046140748933466
0.23440181213128392
0.20383471377848686
0.20976966088567028
0.29264324117596957
0.16153423230045008
0.265492786186906
0.22603726569805158
0.2850405634261019
0.21349308741672732
0.23079488476944987
0.25070663037216034
0.08646895691760931
0.11950177492472483
0.09866285354720895
0.13651137912959704
0.2103487013643549
0.21387570674344497
0.13380302330303193
0.022212783414801027
0.18892171772895305
0.20237785357081384
0.09150214840049066
0.1347277780564388
0.22915132535914193
0.22130452430621697
0.28916697960537546
0.17761767337812345
0.3309562792893724
0.26194968672631996
0.3048152841383823
0.21603193302470303
0.2170660102243304
0.21738475259364912
0.22826142832859103
0.25064505725700065
0.19658536416488825
0.19708830245400155
0.13514445132176053
0.2386887191101618
0.24308922725519372
0.2751553080829983
0.35054057924292137
0.3815109991267311
0.23952689138944314
0.27964955418815624
0.2974180613091475
0.2101044994031986
0.2745054605648619
0.37109464529305897
0.3307910786885492
0.09765648235378187
0.36483777665419886
0.31069244270348984
0.3301863197268094
0.3699693793717964
0.14857223050369975
0.284236471795918
0.27256666514619504
0.2759662282308627
0.3326379188877073
0.2064708430560133
0.2304658236348528
0.009980233510185333
0.00794967676535978
0.013941638976839255
0.03234430258268416
0.011486435715438573
0.033696313456372244
0.18519077826971392
0.01577689087410679
0.2894104799674798
0.1917130922970277
0.33755034480655866
0.26945003191513567
0.26369139817831194
0.28802798975556315
0.2874219191461836
0.31238131441405137
0.2762449532339142
0.2662468669533176
0.2832607523219415
0.27253679800913916
0.058410511755108335
0.24138725632668567
0.03785242991872494
0.05096754823146287
0.10227803236980788
0.22280278279343788
0.11673661554198539
0.07376506496883886
0.31655637259609115
0.3199196373841757
0.24832516519209244
0.20948124586174385
0.26875486389420644
0.01532813321841981
0.3034550267438897
0.3221479935939724
0.3236794323124432
0.3105843265370624
0.1685533885708817
0.27699273320850787
0.20753620317251076
0.304159075655599
0.11515549581048186
0.06681081316827367
0.35944637119378786
0.35230631728150463
0.2554343756933245
0.31296934815567795
0.26526717349077844
0.36230235060996624
0.3157422717227823
0.2565463546081548
0.2641298990973959
0.26575732849017386
0.30188133227020675
0.2659323041444923
0.23511372228585362
0.20884019675245408
0.1995504927350949
0.15666963629890496
0.1837026200870577
0.21229168059855152
0.1634626253987611
0.2075400050211912
0.07962898562338348
0.11330484037274373
0.15340893641899267
0.12729622332698076
0.16780821925675496
0.05832238220678041
0.09448954454182479
0.3871094291898063
0.2883709580439844
0.2987269290532927
0.2869023058104911
0.46861244216294895
0.417071096597132
0.26735715060729315
0.17926630611914382
0.09637969620218913
0.047819289836860984
0.07764174753630686
0.1381947782836562
0.24095210104799097
0.23756064763552828
0.18562043715673385
0.35945518261255127
0.2584066274796599
0.4428235442814829
0.1474747755277247
0.21678353147608548
0.3545453844976488
0.3198904795908489
0.1659613091570525
0.045716456708762364
0.09659352453838749
0.05444377938671717
0.041269693093129195
0.04232369625248628
0.057940691461751306
0.04636316464840012
0.054454472844750856
0.3996169669449979
0.3480571483734018
0.2555567927689433
0.28963213827566264
0.2642042456511838
0.31371293509843445
0.17616932839856356
0.15465430261112423
0.14507613755131948
0.21710318542624865
0.03848261805001494
0.05117076887782368
0.1419873016943032
0.1113090900512011
0.14582521123392772
0.05408310153432781
0.043382625894114846
0.057484103611446805
0.07029659702996993
0.06281690946240084
0.0553878774238689
0.026084862255743264
0.034005149988601116
0.42567401558162726
0.34995194737523616
0.33074339720663537
0.36337639323497173
0.16702296216764434
0.05507275188330543
0.053160149807112575
0.10887838533506193
0.0963358223670613
0.05119558054705288
0.1828996274298745
0.34790670018506314
0.41800909809911163
0.413841568796153
0.07663916185431455
0.2760507497887654
0.03933873671353598
0.2981234548983085
0.06874683826057305
0.047557631146981895
0.0694009899297062
0.12475575882833399
0.09735345221188489
0.0758036316525885
0.2201695500445291
0.33870764179521806
0.1559466564600465
0.3270913318172692
0.4252054351105217
0.08985132501618827
0.08313309665020449
0.08185197037523953
0.1548364032883924
0.040883939771918745
0.04696821407707599
0.15318954153625172
0.3932411018349717
0.32814151060746166
0.10322674984769699
0.22635083872689582
0.10822329140960228
0.22967019742132064
0.20644570320485284
0.2945919932781255
0.24875681261659638
0.28073955393440786
0.2676599814951321
0.331994586557172
0.46561224268672247
0.33462454028099325
0.2534729021080564
0.1983638844970466
0.2154555114345436
0.30071306814688326
0.21601441245463773
0.2861632301368564
0.2569987540459246
0.1347212958452207
0.2224224029283105
0.20052670561628325
0.22496404540060722
0.2554796571728344
0.16118365858332834
0.16707318466450843
0.18188454468781523
0.193585611093207
0.11625019410434281
0.25285288835209774
0.13064526988460196
0.24551898907604774
0.21966706307081624
0.23775896800676746
0.2682026523906947
0.3367783133160784
0.20386305643861397
0.09721416119236292
0.12126052131761952
0.0945015905131555
0.1028336928735357
0.22165235182663795
0.26702924588459653
0.20708768923255227
0.16560454983880388
0.30045892876606156
0.33851949322108627
0.2277236012374293
0.18676216925562103
0.15605569632737193
0.24003612155044524
0.2837703945993825
0.3893418319850346
0.10454271312256527
0.06662305480099376
0.06704260111724328
0.2903898192677126
0.25823609039164297
0.29658198365787547
0.38947902057223366
0.3231895037282592
0.21012090985545143
0.19978324443830253
0.35421855180824874
0.3295517224588233
0.25044296374400093
0.22710313042816857
0.3691457495760315
0.31724045596182493
0.10089598884962872
0.23036786031262635
0.2579125941237252
0.11336435888998816
0.0686555076185197
0.12079512371869452
0.07825036054276212
0.10708146306367278
0.1969953131291061
0.2110195039408578
0.16785899931172862
0.19806137697126006
0.19097356469559632
0.09110412889705527
0.3856984177839994
0.2597890878780299
0.231960954646178
0.2745172642461077
0.30985051551136206
0.29801666806842186
0.4025976510563888
0.46577867641416304
0.46903918555431945
0.3672931758686159
0.31713674482063064
0.35192381656404825
0.36736559806319724
0.10051466927618376
0.3190079514931223
0.3578151696201553
0.48161432032289453
0.4948315050203276
0.23798485558161736
0.5265711646433291
0.47614466376465514
0.1599765875318352
0.30916873897100083
0.2305582968014813
0.29401888313740077
0.16390902049694595
0.24875462442813914
0.1748692307426155
0.29176116492129384
0.23363444626818672
0.15152661431223163
0.12897383683181451
0.4512257105869396
0.18715732180340602
0.09754198267486533
0.2651158979914272
0.14352281301660613
0.24408012603973453
0.06627554125237677
0.11930278547881384
0.10840735606940215
0.19908591761888506
0.22580422082072016
0.07549766751279954
0.15742367879748576
0.12789091634021793
0.1944960734989304
0.13638346347883756
0.11719481184087419
0.358266300249343
0.3760174849746861
0.11028758623512835
0.32273341683159895
0.291559727570206
0.21768402821129798
0.21029665773545295
0.056205661193157896
0.14316852702633848
0.054805059358221705
0.17246138894429633
0.039543693555231726
0.048753929983623996
0.05611718647330052
0.08292618559422026
0.16425258150787075
0.15530841011240343
0.13799200877737539
0.12805035900882197
0.13157069046389014
0.13069523558020157
0.19301493875932096
0.1836359827328147
0.22196009612847845
0.21592011407428424
0.14906608432993185
0.21775402998769605
0.22408409698732418
0.2009953649066148
0.22832997139896477
0.20276484841948048
0.13043641263329106
0.20280766234664738
0.3002186640338239
0.20887656960282608
0.2550638547000681
0.12495372061411843
0.23475019537343367
0.2529990070381011
0.20213880165178028
0.1907811970336863
0.2599256634977696
0.19644975162020292
0.13624195496689687
0.24062638892823435
0.24170330130667436
0.17649512310280235
0.2857143091043918
0.33157562675131463
0.2078462059344648
0.11418818420057192
0.1049272831529797
0.3051153762708764
0.1573173924853213
0.1531996693489838
0.1760613196046263
0.15970379184373018
0.2601272581114587
0.210219094618929
0.23950498731418424
0.14303018658774472
0.1096644499304907
0.1905804731006587
0.23370603046880775
0.1410964770552024
0.05401923225894927
0.0662574091572199
0.0975382377308045
0.04897836711436802
0.06068785620389026
0.31761254581634035
0.20257527891085306
0.33708082543865486
0.19859984504683673
0.12304176824194725
0.28084601926422137
0.30229675071794954
0.04085232979234133
0.05400152979291915
0.04649052829599643
0.02223526314518627
0.010150251218086988
0.020504404616579486
0.037686439665299415
0.10984650230062512
0.08241730282618569
0.022533590655564966
0.01519639958756721
0.139688479663959
0.13057943653803242
0.175894871367449
0.1325468234833925
0.14644860533318663
0.24209604592150388
0.23736690815915312
0.1586817638125765
0.16414576802474526
0.12250363064623314
0.07667859958022215
0.1844574310129033
0.15109874368367357
0.11507553953147565
0.15304315023127185
0.21703008041316782
0.20245354259226966
0.29227299665378476
0.2836269150550501
0.3503129200802756
0.40096865201555454
0.4080934236876864
0.22522112076439296
0.10969167411965391
0.15620049405660252
0.0959865749414142
0.22045524079860596
0.11094908094966296
0.03673373080653222
0.0658718100065521
0.06441938409977663
0.05211132633733817
0.0605429233004377
0.06737778331459465
0.2065266801433148
0.13766507910612238
0.16399319829055561
0.21951940569216458
0.2495594782555155
0.3180141049858817
0.2613019052011939
0.255757119475337
0.36629749806955864
0.3220884616996926
0.3832664579133045
0.31824947945148657
0.2793581667712988
0.30546073526983775
0.09366473881110597
0.3350088810728303
0.28734391236421797
0.12572540576315086
0.10771373353686838
0.07370226347536533
0.09131412177037541
0.0336976760624507
0.10660602354950142
0.21254883373784225
0.20817616667915306
0.1969886773015769
0.27231000749998957
0.29649869996551276
0.15538083177464243
0.21669245255375472
0.2894410774209756
0.2883067297437344
0.3389854926661951
0.24813555718042216
0.31051836488202383
0.2801496827809921
0.26783826057214133
0.22555182736888055
0.29642423695853026
0.17942198677283477
0.2357875383705859
0.24755530636818518
0.4936272905207543
0.4046821677345004
0.013937863933168565
0.35667481673741114
0.2526143136341997
0.20147638269540874
0.20048159981537975
0.3183453182081964
0.35228721631155385
0.3669078098134199
0.040787339097111346
0.14965147122567166
0.025934724010201544
0.10984378646732937
0.2302306008426741
0.3219740772305744
0.0336561490524606
0.22798399266627228
0.32861879780089354
0.20151447422405225
0.2348142409307165
0.2360571058680439
0.20951494497798717
0.20362693324931339
0.12939000611524867
0.01820285345185281
0.2272809387076187
0.011785344456994334
0.009891141475831533
0.048534831504756924
0.043812026571184354
0.062335200832158655
0.5580680128874143
0.5794027170378494
0.5450511918775581
0.5168026480610804
0.5381221606191481
0.13087351645553688
0.5769118046357714
0.5663549917847457
0.010515487613281388
0.025500851784029468
0.036195197037061026
0.019458745029747905
0.26337604641816703
0.16864627745496588
0.18002675064049758
0.276160372392311
0.3222680789349903
0.4018402330766645
0.36126408234481233
0.35292453485059655
0.4320198991233051
0.36087558595205665
0.4025300989578259
0.37453287086461634
0.36553094368922345
0.43785067511184034
0.39590848570003095
0.3146506368720864
0.23359497575355287
0.30012878845613755
0.15920447452224387
0.11700577029439609
0.07420026452117835
0.40372884187559144
0.22345362114091352
0.3009029173441113
0.18246074617322858
0.20393225205550655
0.25706585566103235
0.26627421011059843
0.42038408252450316
0.06110973488655588
0.10747488359172597
0.11927282668867453
0.12291852033349919
0.0777904761418793
0.04676489353139384
0.03666844823341406
0.0645756250936989
0.053674215676912586
0.11298239799179387
0.10751844636202679
0.11719083007327039
0.057522104699047165
0.16181958863292747
0.05317436620147392
0.14394298688843835
0.07238949084901958
0.023618664696001244
0.025793706599557393
0.04772692135010739
0.025773164093803536
0.07581138670083148
0.16968917250780727
0.15405210592221974
0.15125160176251304
0.11567855544468099
0.1598799512552537
0.17482663060725415
0.1669514179816881
0.1717200649536679
0.07833421579242031
0.1558078564737145
0.11161163501139999
0.1267130724860874
0.17003768002555383
0.11989981128757725
0.05176256532853077
0.08390231315764099
0.3485842288089949
0.41320007320989044
0.27542922902779
0.34063720532613007
0.3202985675104865
0.12061851370921131
0.12169664595141326
0.07767916443880153
0.08893956015066287
0.03209947011897819
0.054799865797298286
0.06336949977219207
0.09499031844747059
0.1042162047855781
0.06538976641424726
0.3123036945154983
0.3087556817942964
0.2708351249734764
0.07662364184443111
0.10460148219096858
0.29556115066864963
0.27734216651549254
0.2505416733589101
0.38762560301232013
0.319529350236773
0.24257223397704905
0.3034947130536779
0.11087328299483498
0.3116682649222498
0.36597286498837805
0.3685416127501897
0.14905520143195292
0.16673459501627783
0.17103544932751516
0.21760788583889493
0.20594931235859656
0.18443254134393225
0.21643902035243218
0.3089132757493674
0.28405939698083593
0.2600870702718806
0.20400475460008619
0.3106228416830023
0.30525834016368175
0.16555519402764185
0.1961800729348349
0.15011975033635486
0.2296633148231972
0.1134143669488896
0.14370951782512342
0.23433366513329795
0.04429977343846568
0.06705695801092734
0.22474936075248056
0.11310422129757536
0.11431113186526431
0.10236965972921416
0.13557752267476747
0.35109324570415595
0.28386703526787316
0.3596145108711197
0.19675279255140105
0.39366667696178215
0.2580555972634379
0.19931944288798092
0.1427381380411745
0.12424411156369342
0.08793578295790866
0.0985987309109001
0.13016837062121175
0.09671698380628004
0.041213468626835885
0.036398605515305264
0.04607310711896107
0.04379787764984182
0.04286217175933867
0.04103472140993203
0.06076990502045987
0.11345202926344165
0.09476346234152337
0.11006899564022307
0.04280367877251642
0.0675854466358988
0.16832649361104846
0.2714243475964886
0.20989511838472047
0.09281227670639217
0.22744660945947348
0.07739291369284201
0.09378597518690127
0.15025313872347615
0.15071921240649433
0.15476053484686797
0.15347704519383693
0.20149194169304466
0.1190786016272664
0.22860021103991868
0.17875349099870166
0.13192992477075655
0.22558749479775805
0.23044757161057877
0.2550747664894069
0.26981295729820765
0.12490472164760338
0.10495037709510863
0.14465921958520647
0.12287142520107483
0.062387143166669566
0.1302097598262532