# vtk DataFile Version 1.0
Bar_TO_3D
ASCII
DATASET UNSTRUCTURED_GRID
POINTS 12174 float 
96.0 0.0 0.0
94.0 0.0 0.0
90.0 0.0 0.0
88.0 0.0 0.0
84.0 0.0 0.0
82.0 0.0 0.0
78.0 0.0 0.0
76.0 0.0 0.0
72.0 0.0 0.0
68.0 0.0 0.0
66.0 0.0 0.0
62.0 0.0 0.0
60.0 0.0 0.0
56.0 0.0 0.0
54.0 0.0 0.0
50.0 0.0 0.0
46.0 0.0 0.0
44.0 0.0 0.0
40.0 0.0 0.0
38.0 0.0 0.0
34.0 0.0 0.0
32.0 0.0 0.0
28.0 0.0 0.0
26.0 0.0 0.0
22.0 0.0 0.0
18.0 0.0 0.0
16.0 0.0 0.0
12.0 0.0 0.0
10.0 0.0 0.0
6.0 0.0 0.0
4.0 0.0 0.0
100.0 0.0 0.0
0.0 0.0 0.0
0.0 4.0 0.0
0.0 6.0 0.0
0.0 10.0 0.0
0.0 12.0 0.0
0.0 16.0 0.0
0.0 18.0 0.0
0.0 22.0 0.0
0.0 24.0 0.0
0.0 28.0 0.0
0.0 32.0 0.0
0.0 34.0 0.0
0.0 38.0 0.0
0.0 40.0 0.0
0.0 44.0 0.0
0.0 46.0 0.0
0.0 50.0 0.0
0.0 54.0 0.0
0.0 56.0 0.0
0.0 60.0 0.0
0.0 62.0 0.0
0.0 66.0 0.0
0.0 68.0 0.0
0.0 72.0 0.0
0.0 74.0 0.0
0.0 78.0 0.0
0.0 82.0 0.0
0.0 84.0 0.0
0.0 88.0 0.0
0.0 90.0 0.0
0.0 94.0 0.0
0.0 96.0 0.0
0.0 100.0 0.0
4.0 100.0 0.0
10.0 100.0 0.0
14.0 100.0 0.0
20.0 100.0 0.0
24.0 100.0 0.0
30.0 100.0 0.0
34.0 100.0 0.0
40.0 100.0 0.0
40.0 44.0 0.0
40.0 48.0 0.0
40.0 52.0 0.0
40.0 54.0 0.0
40.0 58.0 0.0
40.0 62.0 0.0
40.0 66.0 0.0
40.0 70.0 0.0
40.0 74.0 0.0
40.0 78.0 0.0
40.0 82.0 0.0
40.0 84.0 0.0
40.0 88.0 0.0
40.0 92.0 0.0
40.0 96.0 0.0
40.0 40.0 0.0
96.0 40.0 0.0
92.0 40.0 0.0
88.0 40.0 0.0
86.0 40.0 0.0
82.0 40.0 0.0
78.0 40.0 0.0
74.0 40.0 0.0
70.0 40.0 0.0
66.0 40.0 0.0
62.0 40.0 0.0
58.0 40.0 0.0
56.0 40.0 0.0
52.0 40.0 0.0
48.0 40.0 0.0
44.0 40.0 0.0
100.0 40.0 0.0
100.0 36.0 0.0
100.0 30.0 0.0
100.0 26.0 0.0
100.0 20.0 0.0
100.0 16.0 0.0
100.0 10.0 0.0
100.0 6.0 0.0
4.15280294 4.16630173 0.0
8.3700285 4.30302286 0.0
12.4098711 3.93831658 0.0
16.310051 3.87328553 0.0
20.2036705 4.03112984 0.0
24.2145939 4.33294678 0.0
28.7772808 5.03288651 0.0
32.7411346 3.85475469 0.0
36.517067 3.82171869 0.0
42.0387802 3.86816287 0.0
45.8033981 4.06726742 0.0
50.004097 4.71917295 0.0
54.0183372 3.93797636 0.0
58.2245674 4.87414598 0.0
62.5502052 3.77882957 0.0
67.2750473 5.15574551 0.0
70.7734833 4.46764183 0.0
74.7921066 5.12396193 0.0
80.1252975 4.43903923 0.0
83.8619385 3.90427375 0.0
87.7472153 4.74412346 0.0
92.0174789 4.19015932 0.0
95.9748688 4.06366396 0.0
4.08784819 8.21089458 0.0
7.70617294 8.7223568 0.0
11.8222694 9.45137215 0.0
16.4834976 7.67375088 0.0
20.1508293 7.92666197 0.0
23.9054718 8.3372345 0.0
29.6148911 8.15605259 0.0
33.5872803 8.65404892 0.0
37.3790131 8.18856907 0.0
42.0682831 7.67571259 0.0
45.2545395 8.13835526 0.0
50.6868439 7.89065599 0.0
54.7233505 7.91246462 0.0
58.1124916 8.30289459 0.0
63.5312309 8.90739441 0.0
66.4926224 9.36891937 0.0
70.266922 8.85576248 0.0
74.6072693 8.20598602 0.0
78.887291 8.99817848 0.0
83.5705185 8.6196804 0.0
87.1733932 7.74610376 0.0
92.4673004 8.02637672 0.0
96.0442657 8.00386238 0.0
4.15784597 12.3741951 0.0
8.13913441 11.2280455 0.0
11.6115608 12.2554827 0.0
15.783946 13.1541872 0.0
19.8237171 11.9135256 0.0
25.0906906 12.4315615 0.0
28.5411053 13.5338497 0.0
32.6507111 11.8082571 0.0
37.7847595 12.6582613 0.0
41.9324951 12.8231945 0.0
47.5365639 12.5772104 0.0
50.3485565 12.1578379 0.0
54.0582619 12.9793854 0.0
57.7840309 11.7029543 0.0
62.4014587 12.0840816 0.0
65.8407898 13.2368259 0.0
71.3058472 11.4527121 0.0
75.3729706 11.4559326 0.0
79.5208511 11.5715017 0.0
83.1968002 10.9537067 0.0
87.5776596 12.5248318 0.0
91.1291122 12.7805576 0.0
95.5030365 12.2973223 0.0
3.75831175 16.2575455 0.0
9.60991383 16.2472248 0.0
13.1020365 16.4232578 0.0
17.3644218 16.8548775 0.0
20.8361092 15.8680401 0.0
25.001646 16.9155521 0.0
28.8136501 17.9389706 0.0
33.232933 17.5455017 0.0
37.7154274 17.0351391 0.0
40.7648697 16.8495979 0.0
44.923996 16.8988628 0.0
50.5142288 16.2069778 0.0
55.0853996 15.8484974 0.0
57.1431847 16.1924152 0.0
63.0562515 17.4309196 0.0
67.3248749 16.8482723 0.0
71.1770325 15.9822502 0.0
75.4041061 16.2060356 0.0
79.7553177 16.2358646 0.0
84.1440659 16.3749447 0.0
88.1792679 16.8311749 0.0
91.4832687 17.8696423 0.0
94.9203644 16.9201164 0.0
4.38782263 20.2206345 0.0
7.79606009 20.2994232 0.0
11.5397215 21.9488888 0.0
17.0244904 20.0665302 0.0
20.1300163 20.8272228 0.0
25.407053 22.435154 0.0
29.8942776 21.7187576 0.0
33.1837387 20.1862869 0.0
37.0446243 20.7140427 0.0
41.8205032 20.9896145 0.0
45.8697014 21.1519108 0.0
49.4784393 19.4253025 0.0
53.0983963 20.6343117 0.0
58.5140724 20.891243 0.0
63.0299683 20.8879604 0.0
66.159317 20.0903378 0.0
71.1514816 20.261879 0.0
75.8672943 20.6813812 0.0
83.9359207 20.3757648 0.0
86.7332458 21.3724556 0.0
91.6577988 20.5914078 0.0
95.0615692 20.9848003 0.0
4.2758131 25.8185272 0.0
8.92153645 25.581068 0.0
12.2322044 25.350338 0.0
16.2193375 25.7707939 0.0
20.7412853 24.9444885 0.0
23.4843674 26.2534599 0.0
29.8271694 25.3878326 0.0
34.2556419 23.6067848 0.0
37.5835686 24.3730526 0.0
41.2360458 24.6371765 0.0
45.0844116 25.1228313 0.0
49.7854538 22.8705997 0.0
54.516613 25.640873 0.0
59.3007126 25.176712 0.0
62.9642868 24.860117 0.0
66.5198059 24.0174923 0.0
71.1389465 24.8826885 0.0
74.7060623 24.7096901 0.0
80.1701279 24.4889812 0.0
82.8194733 24.7170162 0.0
88.1828995 24.3349209 0.0
91.5007782 26.0758648 0.0
96.0914612 25.1077728 0.0
4.12153435 29.8405972 0.0
8.12670517 29.9287109 0.0
12.3276138 29.1126747 0.0
17.891346 29.6010857 0.0
19.9165077 29.7743073 0.0
24.1680698 28.5607719 0.0
28.7385654 29.4620323 0.0
33.5126534 26.9827881 0.0
37.2080498 28.4549294 0.0
41.3557091 30.2081146 0.0
45.8551865 29.3451328 0.0
50.2635193 28.9758949 0.0
53.9765129 29.7054253 0.0
59.2410965 29.725811 0.0
62.8574982 29.844656 0.0
66.6092834 29.8013401 0.0
72.457695 29.682724 0.0
75.5888138 30.7709637 0.0
80.0881348 27.9142723 0.0
83.9328842 29.5340824 0.0
90.2335663 29.1997643 0.0
96.8320312 28.3486118 0.0
4.05126572 33.8147278 0.0
7.86805677 33.5986137 0.0
11.5691948 33.5320549 0.0
15.6512451 34.0631256 0.0
20.7817345 33.6513672 0.0
24.1799011 33.6730843 0.0
28.9775124 33.6707878 0.0
33.2053719 32.4453812 0.0
37.5459251 32.510643 0.0
41.5680809 34.3973045 0.0
46.5124626 32.8294144 0.0
51.5057793 33.5717773 0.0
55.6175842 33.8958321 0.0
59.4664459 33.9691467 0.0
63.0839119 33.9117432 0.0
66.2320786 33.289196 0.0
71.8458176 33.9285126 0.0
75.3805618 34.1727104 0.0
78.3972626 34.1357231 0.0
83.5370407 34.0955658 0.0
87.8008957 32.3388023 0.0
89.9807205 33.0815544 0.0
96.5144882 31.9332428 0.0
4.19800043 37.7831001 0.0
8.14406967 36.9041748 0.0
12.8731489 36.7465286 0.0
16.0549393 37.1026001 0.0
20.757597 38.1237068 0.0
24.7427673 36.8159218 0.0
28.1208649 37.4598198 0.0
32.189827 38.6742935 0.0
35.9814529 36.5879669 0.0
41.8842735 38.205143 0.0
45.5332794 36.2086601 0.0
49.7692986 37.9204025 0.0
53.7858467 37.9133072 0.0
59.7922363 37.9785843 0.0
63.7529221 37.907032 0.0
67.7615738 37.7140503 0.0
71.8479996 37.9386864 0.0
75.7865372 37.9757805 0.0
79.7641525 37.8336411 0.0
83.7548828 38.025013 0.0
87.7194824 37.9912453 0.0
91.7854843 37.6752167 0.0
96.0350113 35.8526955 0.0
4.09324217 41.738945 0.0
8.81849289 40.6585922 0.0
12.431735 42.4387627 0.0
16.890871 41.2837067 0.0
20.5276642 42.6177711 0.0
26.7052555 42.5306129 0.0
30.529047 42.270092 0.0
34.3961258 42.0997276 0.0
38.1927643 42.0220337 0.0
3.91039777 45.6618385 0.0
9.25484943 45.8131638 0.0
11.662838 47.7963028 0.0
16.5130119 46.5954971 0.0
20.3243256 46.237606 0.0
24.8194466 46.0546417 0.0
28.8794708 45.8209877 0.0
32.6718979 45.7659073 0.0
36.4192772 45.8305321 0.0
4.77405548 49.7210579 0.0
8.03316021 49.4093513 0.0
12.3197289 50.0527802 0.0
16.7371044 50.1016312 0.0
20.6857967 49.7393761 0.0
24.1830845 51.4275017 0.0
29.1357117 49.2390862 0.0
32.7705078 49.4234047 0.0
36.4353943 49.7092934 0.0
3.87597275 53.9978447 0.0
9.15812302 56.199646 0.0
12.8755178 53.8488464 0.0
16.8944473 53.9203987 0.0
20.149786 55.1324615 0.0
24.1427498 54.5679817 0.0
28.4243031 53.9264069 0.0
32.1190109 54.8081055 0.0
35.9799156 55.5280266 0.0
3.68565226 57.8081169 0.0
9.16372395 59.4611397 0.0
12.011548 59.2983932 0.0
16.8973866 58.5782089 0.0
20.6859741 58.7508354 0.0
24.7122173 58.3076591 0.0
29.1280937 57.841877 0.0
33.0435638 58.7932549 0.0
37.3656464 60.0388031 0.0
3.69408369 63.4390411 0.0
7.41960859 63.110508 0.0
11.7919788 63.3858795 0.0
16.4330254 61.7685623 0.0
20.6056347 62.3886909 0.0
24.7643566 62.2271843 0.0
29.6562099 62.5214233 0.0
34.2026138 62.6263733 0.0
38.0386848 64.1818771 0.0
3.82566929 67.1241684 0.0
8.50469875 66.5183182 0.0
12.6346502 67.078331 0.0
17.7474327 66.0749207 0.0
21.7947865 66.9165268 0.0
24.2558117 66.0605087 0.0
28.8530903 65.3733521 0.0
32.1786537 66.1324539 0.0
38.0261154 68.1219101 0.0
4.9681201 71.0353317 0.0
7.90629196 69.8165207 0.0
12.601656 71.0750198 0.0
17.3022614 72.5831985 0.0
21.7184258 70.7945633 0.0
25.4765396 71.6427689 0.0
29.9428158 71.4903107 0.0
33.3351173 70.4414902 0.0
38.0843239 72.0172119 0.0
4.52242661 75.7000198 0.0
9.07929611 75.0182953 0.0
13.0730591 74.9469681 0.0
14.5960293 75.3255463 0.0
21.2461987 74.5138168 0.0
24.8379269 75.9376144 0.0
28.5806446 75.7642593 0.0
32.496994 75.9791718 0.0
38.1397781 75.9810028 0.0
6.12833405 80.1760635 0.0
9.02919769 79.3044205 0.0
11.9899549 79.1563187 0.0
16.4112377 80.1904221 0.0
21.6344643 79.1844177 0.0
25.4465008 79.2600174 0.0
30.3586178 79.5625687 0.0
34.2984428 79.7133408 0.0
38.1055908 79.9152603 0.0
5.11151981 83.8960571 0.0
8.8939352 83.2650223 0.0
12.5922203 83.614151 0.0
15.5188236 82.4895325 0.0
19.2533894 83.4165497 0.0
26.5462074 83.4956131 0.0
30.7468262 83.3473053 0.0
34.2793007 83.5418472 0.0
38.0822792 83.8526993 0.0
3.52774525 87.5252457 0.0
8.81181717 86.9140854 0.0
13.0578899 87.5302963 0.0
16.6326694 88.444046 0.0
19.3906593 87.8338776 0.0
24.9696445 86.4078064 0.0
29.3275433 87.070549 0.0
34.3470154 87.4021301 0.0
38.1072197 87.7816772 0.0
4.90272856 91.5592346 0.0
8.14474487 90.7507935 0.0
16.4196415 92.1858826 0.0
19.5498638 91.8949509 0.0
25.7391472 92.2520828 0.0
29.3708534 92.6440811 0.0
34.4703255 91.1095123 0.0
38.1193008 91.6591644 0.0
4.22867298 96.0440826 0.0
10.0475225 96.6350555 0.0
13.8715944 95.7668915 0.0
17.8814087 96.3623047 0.0
[...]
CELL_DATA 9640 
FIELD FieldData  2
density 1 9640 float
0.9382218810438561
0.0934193813965808
0.3036826037719387
0.4347214663551633
0.882172061338952
0.9223385002764933
0.0010000033001772589
0.11396843542268893
0.7772141963806207
0.9942627298113831
0.9022182655566114
0.08929313814826659
0.4759690688616861
0.34669455404382843
0.03342791338193839
0.09156075194176812
0.7165655652729911
0.02383247419298505
0.9901055650519085
0.9555175492243422
0.8269464838143774
0.9213247959164641
0.001009557789629117
0.13150765138097545
0.16862343599540952
0.10611840715244795
0.043989222891894914
0.0010000205583161554
0.4677232117422771
0.008312794054173435
0.007693258425089496
0.9361843744189746
0.886800462299667
0.006434829691001312
0.9823056868139581
0.8360183534299414
0.7742378704320824
0.09951393711571195
0.0010002053475808095
0.44405733625976646
0.0031838145960037443
0.0012230490454326393
0.0010005201615138233
0.6080641939571373
0.0010121302001263233
0.0010000084964184102
0.6499828043340817
0.8216436662443979
0.0010002637153069785
0.0010154678717953494
0.9336917839482886
0.8817743262672657
0.48468188864011047
0.006564876353198333
0.8386173390144445
0.0010947512768504101
0.021129874010342185
0.0012503295182722004
0.31269107304383703
0.9807698496888833
0.5850898471357082
0.0010000000031179974
0.00993807052274982
0.0010023194469817053
0.19967220099626917
0.0010102248554726282
0.9558008282045255
0.025627923879778233
0.4683041829930271
0.9252656623661043
0.48592279963861257
0.8240883846208447
0.001016240582732487
0.8047358469775139
0.18194811172546857
0.0010000136977444652
0.004764920892345632
0.37962052429170434
0.0010000003770952587
0.0010000221096696821
0.0010820495404008223
0.4541871919545402
0.0017973433741459547
0.8920519209330863
0.01348907984434606
0.0010000566404751385
0.0010000724589660337
0.9416939891939505
0.0033153740537854933
0.9951224828470818
0.9990205407367233
0.9184574443963228
0.5469257531289905
0.0010048085413042053
0.9120123931620001
0.478509209634486
0.7572726691084771
0.005169271606592302
0.800736593773764
0.0032578777467058406
0.9950015479134982
0.9983355241540122
0.001000052027292461
0.00295312016681266
0.001039289394397227
0.027406791636473075
0.9758993863715169
0.6100715813338756
0.21614901331296968
0.0010149831254143678
0.0010000074707581712
0.3863151080139206
0.001000193978586816
0.0013194899423185269
0.00100006329427562
0.0010030134245689595
0.04073461202494185
0.0011075105891208633
0.12371205738753092
0.11710975032167197
0.8963835339200297
0.9873785349927706
0.9942525648262791
0.0018554942381327193
0.0010001455323692555
0.0010134852752945525
0.001100453760937256
0.002373690481534631
0.011001658649741501
0.6941057682136608
0.19877229693953535
0.9869887884547409
0.0010206807352189874
0.5458506783679642
0.9727112204182151
0.21802860041031677
0.9940963714847414
0.0018035002837406575
0.030626113988539264
0.6102356192857393
0.9086693135960197
0.34771552977546444
0.6851576935269832
0.9847377991341927
0.09178558839723187
0.05865737572963878
0.005989555028091902
0.6691370943098343
0.549955179471834
0.02656385465660574
0.2855413618150511
0.003716307159188515
0.0010014298382240454
0.6459833186848093
0.9059680398336135
0.0309094511697677
0.028457618716390243
0.9510745891669219
0.9638931292512254
0.30946640177496637
0.5791659790059935
0.8544778031885538
0.829685051768348
0.003519170139290004
0.0011011523876357724
0.009652431439243703
0.0015668323854507104
0.9924252807082952
0.9633231671206846
0.2588482513222434
0.9685737544372169
0.9731168266130005
0.9919543864592102
0.001514746496269277
0.04190824642221799
0.0010000880751958713
0.0010124705036427656
0.8789194404796746
0.9555894025226158
0.0013903146193237255
0.01685350209790155
0.008716717077588606
0.09160454972091917
0.09416390377690567
0.9994975561919591
0.0010082713799602903
0.00462946043458566
0.2269481726805247
0.007081792711737118
0.6425779131169606
0.9656453263077834
0.7208742537287163
0.0014605698359827673
0.7278963067241824
0.0014733482061900945
0.9983580106057672
0.0880614041893743
0.6278241060862888
0.9968707937200436
0.8066380889775683
0.35820848904368724
0.9323734769266742
0.0010016354328638245
0.0013511713090223003
0.1997164315541708
0.16493409245458776
0.8050691765192879
0.003610702277769472
0.5786152254061215
0.9476441252642235
0.7364611970027398
0.9050387558700563
0.0010830816243251361
0.001957026387803485
0.9762074626434402
0.0010000007783469397
0.002797626279037654
0.998773593983957
0.18775046591820838
0.0010000064935496466
0.738087458530196
0.006432443428267563
0.9704239520694768
0.9271205062475227
0.9869766985294058
0.9972192999160349
0.39959967689272896
0.8894482631106987
0.0010002332025683704
0.7246453356235395
0.950066970775039
0.0010842615053622737
0.06123276859056483
0.001000000422468463
0.04111501199956645
0.001000001410590855
0.8247934787212847
0.6694417094960399
0.6162196083949596
0.1853976034518379
0.3683927641191123
0.18998742957696585
0.0010158495155172898
0.9722926359618781
0.001237150697116914
0.0010042853336519036
0.0426204313881106
0.6944290664867345
0.7916043056271715
0.8473225174867121
0.5162057658752659
0.5425037298541886
0.9235953025362637
0.8086010931660165
0.8837968510365515
0.030502477228537397
0.9448540096861551
0.4133653280880975
0.0010000332978695313
0.0010000014484985622
0.001025513966020348
0.9993144517452082
0.024669206421804223
0.007092216688891716
0.0012688702390504666
0.07493561097055829
0.008990674761056226
0.0013024439182963358
0.06451578758763764
0.2504574729779612
0.9306272340171596
0.010070932028234222
0.9403262855528797
0.9909011259661354
0.9338035352126974
0.99752206554092
0.0071899919849404935
0.0010000034967695755
0.014990859401566005
0.8312982950108013
0.0010000038257725625
0.0010010405747612012
0.9942121385098747
0.9821345054589735
0.001220477166353866
0.957446355121213
0.0010000002709681722
0.001001042901607234
0.10518676808755154
0.0010000051758799712
0.8971164893748446
0.08678766122277112
0.8474130728777226
0.943232011947944
0.39842641700894804
0.8475014784171475
0.27359627060147956
0.0010002530192435941
0.11864860278608408
0.07856047630723793
0.012770196964734692
0.0010000200729426772
0.9787522139060423
0.5938219546821695
0.004380381027452265
0.0010663835964100077
0.38269217853669435
0.15452945281867492
0.021996548575655864
0.01269647347342602
0.011246206171952183
0.05798272385973173
0.003020280124597909
0.3352285264445202
0.050769503011937105
0.412663665269894
0.004496189315293999
0.0010604575706595401
0.0010000000000860991
0.0020312287656425684
0.953886435795058
0.9972300257499336
0.001002324892860534
0.0023280692597283255
0.9011425536230593
0.008839491331300707
0.00100001093596851
0.7049388791078166
0.6505951468776839
0.0010783647045084438
0.001008825526282005
0.0010124456779665423
0.0010148394842017646
0.001000505485958384
0.0010553834437878912
0.00519234650852749
0.785289492500712
0.9900893046068143
0.8932088748142787
0.002348048260412623
0.6004281010842705
0.9926660085825266
0.9849481583451095
0.001000056197904263
0.04561605522678333
0.21102585347102243
0.2171119258998912
0.8002876306791912
0.782248742073259
0.7648883505565552
0.6727989334227821
0.0010003248634788558
0.9756268952503535
0.9877146497022858
0.9076990121373433
0.006190921245711912
0.9792225780094028
0.9907185221602459
0.001035708574208891
0.0010000815088767072
0.9576884751612706
0.2401008144906798
0.6481274076760322
0.012196737844490484
0.0010000861511266146
0.9198457634253212
0.9802655180534995
0.001018900855411518
0.3749219142844527
0.0010040551166134702
0.17072047870740809
0.4175803602668145
0.983239208380538
0.991636961077524
0.3422499416813458
0.15070464098714567
0.00100009673711112
0.11083192687160012
0.9115095131463813
0.0017172876240823273
0.00677480078233702
0.001000000005379366
0.9108612101155678
0.006954542658997538
0.0010366541488927505
0.41507301937172647
0.6036697408057897
0.03587916649607408
0.002571260233401036
0.0010000004765613642
0.0062863623426420495
0.7406141698108994
0.8703282021370594
0.037776613577349565
0.7191040388982874
0.0010003241801035568
0.011869263793112237
0.6051040396827067
0.08563049665448712
0.0031042916802886855
0.9886880147297638
0.8627508183682531
0.9061478651047677
0.09517903588842008
0.0010000000381995822
0.9941324683499185
0.046757427554188255
0.008411809828905032
0.0011873945944000856
0.0012368260870203361
0.025948246846965575
0.006765906118452458
0.001001611022650675
0.0010068506051422593
0.6398458700923141
0.9115973035387351
0.1293840543441309
0.12764186586949736
0.837972023304435
0.0015809927859113243
0.0010771175906810196
0.8259366776999102
0.0036929153534548463
0.7739452037278893
0.9862914023028057
0.01562866524328957
0.0030505971401166765
0.33641168464947857
0.4817986532182788
0.8313189584683727
0.41971568149938243
0.9443318314154753
0.05590049971676147
0.05830905308918956
0.33989682686940753
0.4592477753672396
0.3336280260758004
0.6675338024802335
0.6994317984334104
0.9220805846731686
0.0010042402015988366
0.8892476783641413
0.01058135845297948
0.2595341253235175
0.09251442926035132
0.1163182762654813
0.0010050294058365804
0.0010005851284452282
0.0010000016358045385
0.1133226539252305
0.456829776832502
0.0026803631883994287
0.9960505631722844
0.745350003861596
0.9765966470228196
0.3419895572958994
0.14718418674583936
0.0010614853695846028
0.0010000378682784915
0.533160407058186
0.5267708586207487
0.9567965283165575
0.6922642850807726
0.38079515201926817
0.001005613824180965
0.05123363579944183
0.00215127389004008
0.9002534575368372
0.8674869373709605
0.2729322707555482
0.11255593593075774
0.9636644798251224
0.0010133110084524694
0.0010000838077851549
0.0014360714214442555
0.19408960572700817
0.8503273841766842
0.9539038419960837
0.9007943604274925
0.28822842381454933
0.001165668154292038
0.028301022825365955
0.8100977725485605
0.9629832740279817
0.016327861273799652
0.29848096234271304
0.08620567707438051
0.8409732784996282
0.0011018136247928454
0.0012482654836756303
0.011239522474120137
0.015790524110304925
0.0010010501569024384
0.4974250056184163
0.005092122485685617
0.40140811907043006
0.4712177429035277
0.0013200800256703187
0.6842077797979675
0.1895900486909016
0.7626575119177033
0.2097807392172879
0.001001373980185172
0.0010004684474647365
0.6819483798345866
0.07514778117635
0.0010215360967756654
0.02329691681768416
0.0010277917784137169
0.930863466408808
0.0010244585739277588
0.17477968508375402
0.10262476227250128
0.7217180480619289
0.5973801751543504
0.47312097609675163
0.851975229415031
0.041984592001904755
0.15281944075719828
0.6248073102929556
0.0044658245541426495
0.0016160217898343217
0.9883964627006973
0.9934265767262422
0.001781222635155241
0.0010000280783843281
0.016911828501118904
0.0010053196256833625
0.8194990350513774
0.9984123756501723
0.0010000165411128972
0.0011015120159159968
0.19553990810222077
0.25240457945006717
0.02413878694025255
0.9343901070201208
0.9966836069050896
0.0010081193766997992
0.7534826478290441
0.8874107279677366
0.09930999337098723
0.005643407922338642
0.0010827779737440785
0.13114729926770052
0.22089357043513802
0.19429051882547155
0.17208700625643714
0.0010537601820234514
0.987251807668439
0.001000369310631386
0.3116324702572068
0.1691588649700397
0.001412703266265663
0.4268842800334581
0.2378452068604913
0.001000000049195145
0.38323808062006604
0.982863378697748
0.001029136249615155
0.010429972208182689
0.9810368000186552
0.9509788103999101
0.9995591228743387
0.9505914220160009
0.41919271711538997
0.16315834357452097
0.0010001501651189845
0.9239605417422172
0.00200850213531349
0.0031115177134483506
0.028111207223368455
0.3614669459080253
0.1251454672471388
0.8048566866721364
0.0010661457846745479
0.07937302127709729
0.9924616154670002
0.9475703496184105
0.0010113156888329298
0.010056475884899743
0.02131263705456304
0.0010160945595589091
0.010313313866100921
0.0010013699672613546
0.07145500634164083
0.5315999151034896
0.0010068572297325584
0.0032519819342518978
0.5444039646794868
0.0010016644610324114
0.8947388188638625
0.15216767632951195
0.8787969217169854
0.9233141142144475
0.08300519260968561
0.0010450431645745194
0.012892164750483156
0.36131467645694076
0.7121975891070096
0.0010009318322233846
0.15624564768392313
0.0010254836095983867
0.0010062680110550044
0.43137919687333504
0.013529350188756756
0.003135982667673019
0.6642227240472345
0.0010309982770552932
0.6966330192910664
0.9751975704392566
0.001000004299787522
0.0010035385187494915
0.0022344040927996297
0.0010181139965971633
0.9569872072701981
0.7315473651708269
0.8375123613983589
0.0010000060925343896
0.3132392949560462
0.9889351005270468
0.002681110058086954
0.0010104129594008795
0.29861586544465135
0.9940626789948487
0.5231704988760383
0.9905311981338644
0.9107080348541309
0.0010011835186126662
0.001246044332184529
0.9661772623580808
0.2826508096244981
0.09730347876170532
0.001001148521467862
0.8286925539111224
0.9618960155840444
0.001010747348017443
0.6046860261313997
0.0040440857696535035
0.2728360190179673
0.001000000409092895
0.18270528296494407
0.0010219319436757099
0.0010000516711238527
0.0010095945265138908
0.8719874037842308
0.9069840671036813
0.9857523717222226
0.30723963204561267
0.8447429101329101
0.9462366614617217
0.07630562253666887
0.025802497157819026
0.4713589180586039
0.25309633868620146
0.9395009433946387
0.026121847368064638
0.0386271182257967
0.0012587092536764538
0.010218338696611397
0.0010000014934760438
0.21014372794393416
0.0015842993440104765
0.011032219061807486
0.9675994579199363
0.0018468543514283896
0.008895538643435903
0.8041283376630133
0.04794962947268852
0.14673178513464638
0.0010045783946049994
0.013303457634083613
0.8964261648496684
0.001000001545558597
0.0010019286220311553
0.028677320375309373
0.0018687537704772067
0.001006219577032737
0.013623650702068994
0.0010024065396237894
0.8245250505236509
0.022034749895290345
0.0012213741017936615
0.4519602828773603
0.912883896783995
0.001000168980878749
0.980362190994311
0.035789505342456
0.8244492919700638
0.0010173244495747657
0.6995068726192867
0.5237940187690501
0.20001928144510378
0.003451930561185024
0.08533911899057003
0.0010000000635521547
0.35945408375919613
0.01731250532615125
0.9918967873833046
0.15099646503498537
0.3688967547140607
0.9798421057517894
0.0010060338654034567
0.009091105203412626
0.012966084820398599
0.00579806469163004
0.0010000932420245671
0.8500979488046142
0.00406574870663909
0.00343445686785662
0.0018841824293434708
0.9584199052713116
0.021996220522116812
0.002518098570690541
0.0010002904274733812
0.9972580328081229
0.999754584112937
0.5503434914159112
0.004704544464993084
0.0021513950342045584
0.0010004580943717718
0.9071510902200648
0.0010853224913093765
0.7970986052660877
0.8562003243176668
0.0010001359174213083
0.001003156333415587
0.001056144326576732
0.0010000000284741935
0.0011097343600373485
0.9841558306623972
0.9899882092024785
0.9630584616267688
0.22427820579307708
0.0010002163560651092
0.05095483377195864
0.0025781374663932386
0.7916246898202965
0.0011168625693748137
0.0010000255540386397
0.0010026586568142423
0.19259933632309853
0.02211440625609169
0.0010000000259901907
0.0016390854401232163
0.0014702660781375566
0.0010060023863361993
0.0010388570595033769
0.22504441047505425
0.6311977596274528
0.8871472299590542
0.9441152031787087
0.9440033700030039
0.9901536739117748
0.07502271640188647
0.0013885631091652912
0.39839157221381366
0.9710907330521749
0.9900625732140037
0.0012283783459426999
0.35046127591580684
0.7820364275311482
0.995788104424468
0.0010000000006254103
0.0010001947576508757
0.0010000009925837884
0.03217025977727316
0.5714435273313054
0.3094314980575999
0.991392779675477
0.9937464313494868
0.0010126160249854157
0.7475521475581688
0.6180811875382072
0.4483007791973468
0.927598970167794
0.04117360309647603
0.002051630431790863
0.5795020898299335
0.9267839586746368
0.0010000143666904996
0.0010053054953678452
0.23287354092033624
0.0022150946578487632
0.0021947906636097256
0.006339982684864318
0.7523250358884914
0.007153630373328439
0.8199130661548347
0.0010000011060527013
0.0010000043898540946
0.12165574357532559
0.0010096268141879623
0.3704738274987985
0.9553345503428369
0.9902192997596757
0.01770246822486879
0.7208220009859129
0.8343402865066093
0.993166577394637
0.0013923086806684128
0.8844542099597509
0.9728867183110875
0.03940283335923457
0.22331776363878822
0.0011136928224682804
0.044866821991160016
0.392161112059327
0.001000012254666843
0.0036292376935251674
0.4644483696542756
0.0010000007106516448
0.0023328763790241252
0.8964167690324106
0.0019723415674710526
0.9659393129855596
0.08636408476563416
0.9990553308109243
0.9645835540035457
0.9809550315739259
0.0011766976523678167
0.001010557017102825
0.005692759241181441
0.0010000004698059927
0.9968020490398132
0.3874583143612628
0.17651127302582553
0.0010009438986781495
0.0010955852721851792
0.980810456774796
0.0010000412665469949
0.16403146765253895
0.0010049813755444803
0.9852157538148982
0.9992761088315469
0.8289708279795829
0.5049346178042521
0.0010000000915322863
0.9347972379924551
0.0010000024689034515
0.015496738173386943
0.9315629583242463
0.0011373382190494282
0.001000137157751074
0.016702090314895775
0.8950951200679648
0.0010017656137926492
0.5538776711713463
0.003027783082687267
0.7609507335681694
0.9353721927465447
0.0010058320602795165
0.001000008971164027
0.5917432434533214
0.33807775383471256
0.8711643077693473
0.9917652979160629
0.0010328423357386868
0.001008870876349168
0.5798540896968338
0.001074022412606792
0.8640845199278153
0.001000140040612798
0.0010000091421834216
0.987687579864354
0.06682416832026006
0.0013353588823125273
0.9854147203761711
0.317573628078602
0.0010304791050070017
0.30324286090252317
0.001003722367698725
0.0010115035176867019
0.887951090210258
0.0010000158246299467
0.5565644608925436
0.9956591989293058
0.06015176833966315
0.9933767329877435
0.992222761721564
0.9969772044342854
0.0010552326051719038
0.0010000001178832197
0.6660519055537921
0.01281810010569736
0.9808734176665044
0.99924685526603
0.0012341136715817527
0.38756578449205786
0.596813117466151
0.8993381669682746
0.9108774284918282
0.4282245940343673
0.0026968108306075975
0.02496009408700519
0.0011834240551890694
0.3589653163228322
0.001000010051363521
0.9878473212386144
0.9799429115987571
0.027627156223675394
0.0010011146292838236
0.0010003794252003216
0.15540121171631116
0.7512381932702591
0.0010035580800011195
0.458296388881694
0.9971250447986078
0.24432292972445419
0.0035381696372889853
0.007140986941438307
0.001077706009045237
0.4049254502833888
0.9868354920742973
0.001000684987124435
0.0011326646301402224
0.9769625389760712
0.9772374453033885
0.9959550606460178
0.9501448030870219
0.7341167404393037
0.1819650656706224
0.025323015753712007
0.6094989844309916
0.2719733744194773
0.8745012666952354
0.2594282609197479
0.0017871928848098486
0.6236445735932407
0.9692475614738776
0.008132127131219836
0.7841711234141704
0.5464162258260474
0.1022551244191339
0.9043246739994724
0.001010417770475517
0.0010014526127012304
0.01260754305611082
0.4200895747858978
0.0017939497136872419
0.0010019206379745854
0.3499962561163103
0.24823935242644463
0.001055457764285384
0.00100003131225035
0.08121287672171013
0.7778073826467055
0.7746990209550425
0.9803851464635386
0.0016390088112212071
0.0028285490615535293
0.7313105189319427
0.8522211448203157
0.8915815837683055
0.7843977673086169
0.34305655258829476
0.08905148350570523
0.834451609330098
0.7410622974988225
0.49094842197123023
0.0013000548973502572
0.253049297844761
0.002016592162136401
0.01544632008399014
0.97461168045077
0.014429471945815748
0.0010000386066700557
0.13097041704475418
0.25092759379899654
0.0017471255459220172
0.725130796909788
0.3817307615993977
0.0010002258492269255
0.0010276888280301372
0.036956138190822434
0.03175113336216822
0.02826018206779769
0.0010000019428906672
0.4147196319654109
0.0010020153660391703
0.0010149071087484573
0.15432720978753595
0.0010041374298412392
0.0010036823367526736
0.0010407419048547109
0.18884712937514866
0.5519567317963706
0.0010234772857925574
0.12278902255612754
0.021986125805160284
0.0013502269080603708