# vtk DataFile Version 1.0
Bar_TO_3D
ASCII
DATASET UNSTRUCTURED_GRID
POINTS 2121 float 
-6.25 -11.25 0.0
-6.75 -11.25 0.0
-7.25 -11.25 0.0
-7.75 -11.25 0.0
-8.25 -11.25 0.0
-8.75 -11.25 0.0
-9.25 -11.25 0.0
-9.75 -11.25 0.0
-10.25 -11.25 0.0
-10.75 -11.25 0.0
-11.25 -11.25 0.0
-11.75 -11.25 0.0
-12.25 -11.25 0.0
-12.75 -11.25 0.0
-13.25 -11.25 0.0
-13.75 -11.25 0.0
-14.25 -11.25 0.0
-14.75 -11.25 0.0
-15.25 -11.25 0.0
-15.75 -11.25 0.0
-16.25 -11.25 0.0
-16.75 -11.25 0.0
-17.25 -11.25 0.0
-17.75 -11.25 0.0
-18.25 -11.25 0.0
-18.75 -11.25 0.0
-19.25 -11.25 0.0
-19.75 -11.25 0.0
-20.25 -11.25 0.0
-20.75 -11.25 0.0
-21.25 -11.25 0.0
-21.75 -11.25 0.0
-22.25 -11.25 0.0
-22.75 -11.25 0.0
-23.25 -11.25 0.0
-23.75 -11.25 0.0
-24.25 -11.25 0.0
-24.75 -11.25 0.0
-25.25 -11.25 0.0
-25.75 -11.25 0.0
-26.25 -11.25 0.0
-26.75 -11.25 0.0
-27.25 -11.25 0.0
-27.75 -11.25 0.0
-28.25 -11.25 0.0
-28.75 -11.25 0.0
-29.25 -11.25 0.0
-29.75 -11.25 0.0
-30.25 -11.25 0.0
-30.75 -11.25 0.0
-31.25 -11.25 0.0
-31.75 -11.25 0.0
-32.25 -11.25 0.0
-32.75 -11.25 0.0
-33.25 -11.25 0.0
-33.75 -11.25 0.0
-34.25 -11.25 0.0
-34.75 -11.25 0.0
-35.25 -11.25 0.0
-35.75 -11.25 0.0
-36.25 -11.25 0.0
-36.75 -11.25 0.0
-37.25 -11.25 0.0
-37.75 -11.25 0.0
-38.25 -11.25 0.0
-38.75 -11.25 0.0
-39.25 -11.25 0.0
-39.75 -11.25 0.0
-40.25 -11.25 0.0
-40.75 -11.25 0.0
-41.25 -11.25 0.0
-41.75 -11.25 0.0
-42.25 -11.25 0.0
-42.75 -11.25 0.0
-43.25 -11.25 0.0
-43.75 -11.25 0.0
-44.25 -11.25 0.0
-44.75 -11.25 0.0
-45.25 -11.25 0.0
-45.75 -11.25 0.0
-46.25 -11.25 0.0
-46.75 -11.25 0.0
-47.25 -11.25 0.0
-47.75 -11.25 0.0
-48.25 -11.25 0.0
-48.75 -11.25 0.0
-49.25 -11.25 0.0
-49.75 -11.25 0.0
-50.25 -11.25 0.0
-50.75 -11.25 0.0
-51.25 -11.25 0.0
-51.75 -11.25 0.0
-52.25 -11.25 0.0
-52.75 -11.25 0.0
-53.25 -11.25 0.0
-53.75 -11.25 0.0
-54.25 -11.25 0.0
-54.75 -11.25 0.0
-55.25 -11.25 0.0
-55.75 -11.25 0.0
-56.25 -11.25 0.0
-6.25 -11.75 0.0
-6.75 -11.75 0.0
-7.25 -11.75 0.0
-7.75 -11.75 0.0
-8.25 -11.75 0.0
-8.75 -11.75 0.0
-9.25 -11.75 0.0
-9.75 -11.75 0.0
-10.25 -11.75 0.0
-10.75 -11.75 0.0
-11.25 -11.75 0.0
-11.75 -11.75 0.0
-12.25 -11.75 0.0
-12.75 -11.75 0.0
-13.25 -11.75 0.0
-13.75 -11.75 0.0
-14.25 -11.75 0.0
-14.75 -11.75 0.0
-15.25 -11.75 0.0
-15.75 -11.75 0.0
-16.25 -11.75 0.0
-16.75 -11.75 0.0
-17.25 -11.75 0.0
-17.75 -11.75 0.0
-18.25 -11.75 0.0
-18.75 -11.75 0.0
-19.25 -11.75 0.0
-19.75 -11.75 0.0
-20.25 -11.75 0.0
-20.75 -11.75 0.0
-21.25 -11.75 0.0
-21.75 -11.75 0.0
-22.25 -11.75 0.0
-22.75 -11.75 0.0
-23.25 -11.75 0.0
-23.75 -11.75 0.0
-24.25 -11.75 0.0
-24.75 -11.75 0.0
-25.25 -11.75 0.0
-25.75 -11.75 0.0
-26.25 -11.75 0.0
-26.75 -11.75 0.0
-27.25 -11.75 0.0
-27.75 -11.75 0.0
-28.25 -11.75 0.0
-28.75 -11.75 0.0
-29.25 -11.75 0.0
-29.75 -11.75 0.0
-30.25 -11.75 0.0
-30.75 -11.75 0.0
-31.25 -11.75 0.0
-31.75 -11.75 0.0
-32.25 -11.75 0.0
-32.75 -11.75 0.0
-33.25 -11.75 0.0
-33.75 -11.75 0.0
-34.25 -11.75 0.0
-34.75 -11.75 0.0
-35.25 -11.75 0.0
-35.75 -11.75 0.0
-36.25 -11.75 0.0
-36.75 -11.75 0.0
-37.25 -11.75 0.0
-37.75 -11.75 0.0
-38.25 -11.75 0.0
-38.75 -11.75 0.0
-39.25 -11.75 0.0
-39.75 -11.75 0.0
-40.25 -11.75 0.0
-40.75 -11.75 0.0
-41.25 -11.75 0.0
-41.75 -11.75 0.0
-42.25 -11.75 0.0
-42.75 -11.75 0.0
-43.25 -11.75 0.0
-43.75 -11.75 0.0
-44.25 -11.75 0.0
-44.75 -11.75 0.0
-45.25 -11.75 0.0
-45.75 -11.75 0.0
-46.25 -11.75 0.0
-46.75 -11.75 0.0
-47.25 -11.75 0.0
-47.75 -11.75 0.0
-48.25 -11.75 0.0
-48.75 -11.75 0.0
-49.25 -11.75 0.0
-49.75 -11.75 0.0
-50.25 -11.75 0.0
-50.75 -11.75 0.0
-51.25 -11.75 0.0
-51.75 -11.75 0.0
-52.25 -11.75 0.0
-52.75 -11.75 0.0
-53.25 -11.75 0.0
-53.75 -11.75 0.0
-54.25 -11.75 0.0
-54.75 -11.75 0.0
-55.25 -11.75 0.0
-55.75 -11.75 0.0
-56.25 -11.75 0.0
-6.25 -12.25 0.0
-6.75 -12.25 0.0
-7.25 -12.25 0.0
-7.75 -12.25 0.0
-8.25 -12.25 0.0
-8.75 -12.25 0.0
-9.25 -12.25 0.0
-9.75 -12.25 0.0
-10.25 -12.25 0.0
-10.75 -12.25 0.0
-11.25 -12.25 0.0
-11.75 -12.25 0.0
-12.25 -12.25 0.0
-12.75 -12.25 0.0
-13.25 -12.25 0.0
-13.75 -12.25 0.0
-14.25 -12.25 0.0
-14.75 -12.25 0.0
-15.25 -12.25 0.0
-15.75 -12.25 0.0
-16.25 -12.25 0.0
-16.75 -12.25 0.0
-17.25 -12.25 0.0
-17.75 -12.25 0.0
-18.25 -12.25 0.0
-18.75 -12.25 0.0
-19.25 -12.25 0.0
-19.75 -12.25 0.0
-20.25 -12.25 0.0
-20.75 -12.25 0.0
-21.25 -12.25 0.0
-21.75 -12.25 0.0
-22.25 -12.25 0.0
-22.75 -12.25 0.0
-23.25 -12.25 0.0
-23.75 -12.25 0.0
-24.25 -12.25 0.0
-24.75 -12.25 0.0
-25.25 -12.25 0.0
-25.75 -12.25 0.0
-26.25 -12.25 0.0
-26.75 -12.25 0.0
-27.25 -12.25 0.0
-27.75 -12.25 0.0
-28.25 -12.25 0.0
-28.75 -12.25 0.0
-29.25 -12.25 0.0
-29.75 -12.25 0.0
-30.25 -12.25 0.0
-30.75 -12.25 0.0
-31.25 -12.25 0.0
-31.75 -12.25 0.0
-32.25 -12.25 0.0
-32.75 -12.25 0.0
-33.25 -12.25 0.0
-33.75 -12.25 0.0
-34.25 -12.25 0.0
-34.75 -12.25 0.0
-35.25 -12.25 0.0
-35.75 -12.25 0.0
-36.25 -12.25 0.0
-36.75 -12.25 0.0
-37.25 -12.25 0.0
-37.75 -12.25 0.0
-38.25 -12.25 0.0
-38.75 -12.25 0.0
-39.25 -12.25 0.0
-39.75 -12.25 0.0
-40.25 -12.25 0.0
-40.75 -12.25 0.0
-41.25 -12.25 0.0
-41.75 -12.25 0.0
-42.25 -12.25 0.0
-42.75 -12.25 0.0
-43.25 -12.25 0.0
-43.75 -12.25 0.0
-44.25 -12.25 0.0
-44.75 -12.25 0.0
-45.25 -12.25 0.0
-45.75 -12.25 0.0
-46.25 -12.25 0.0
-46.75 -12.25 0.0
-47.25 -12.25 0.0
-47.75 -12.25 0.0
-48.25 -12.25 0.0
-48.75 -12.25 0.0
-49.25 -12.25 0.0
-49.75 -12.25 0.0
-50.25 -12.25 0.0
-50.75 -12.25 0.0
-51.25 -12.25 0.0
-51.75 -12.25 0.0
-52.25 -12.25 0.0
-52.75 -12.25 0.0
-53.25 -12.25 0.0
-53.75 -12.25 0.0
-54.25 -12.25 0.0
-54.75 -12.25 0.0
-55.25 -12.25 0.0
-55.75 -12.25 0.0
-56.25 -12.25 0.0
-6.25 -12.75 0.0
-6.75 -12.75 0.0
-7.25 -12.75 0.0
-7.75 -12.75 0.0
-8.25 -12.75 0.0
-8.75 -12.75 0.0
-9.25 -12.75 0.0
-9.75 -12.75 0.0
-10.25 -12.75 0.0
-10.75 -12.75 0.0
-11.25 -12.75 0.0
-11.75 -12.75 0.0
-12.25 -12.75 0.0
-12.75 -12.75 0.0
-13.25 -12.75 0.0
-13.75 -12.75 0.0
-14.25 -12.75 0.0
-14.75 -12.75 0.0
-15.25 -12.75 0.0
-15.75 -12.75 0.0
-16.25 -12.75 0.0
-16.75 -12.75 0.0
-17.25 -12.75 0.0
-17.75 -12.75 0.0
-18.25 -12.75 0.0
-18.75 -12.75 0.0
-19.25 -12.75 0.0
-19.75 -12.75 0.0
-20.25 -12.75 0.0
-20.75 -12.75 0.0
-21.25 -12.75 0.0
-21.75 -12.75 0.0
-22.25 -12.75 0.0
-22.75 -12.75 0.0
-23.25 -12.75 0.0
-23.75 -12.75 0.0
-24.25 -12.75 0.0
-24.75 -12.75 0.0
-25.25 -12.75 0.0
-25.75 -12.75 0.0
-26.25 -12.75 0.0
-26.75 -12.75 0.0
-27.25 -12.75 0.0
-27.75 -12.75 0.0
-28.25 -12.75 0.0
-28.75 -12.75 0.0
-29.25 -12.75 0.0
-29.75 -12.75 0.0
-30.25 -12.75 0.0
-30.75 -12.75 0.0
-31.25 -12.75 0.0
-31.75 -12.75 0.0
-32.25 -12.75 0.0
-32.75 -12.75 0.0
-33.25 -12.75 0.0
-33.75 -12.75 0.0
-34.25 -12.75 0.0
-34.75 -12.75 0.0
-35.25 -12.75 0.0
-35.75 -12.75 0.0
-36.25 -12.75 0.0
-36.75 -12.75 0.0
-37.25 -12.75 0.0
-37.75 -12.75 0.0
-38.25 -12.75 0.0
-38.75 -12.75 0.0
-39.25 -12.75 0.0
-39.75 -12.75 0.0
-40.25 -12.75 0.0
-40.75 -12.75 0.0
-41.25 -12.75 0.0
-41.75 -12.75 0.0
-42.25 -12.75 0.0
-42.75 -12.75 0.0
-43.25 -12.75 0.0
-43.75 -12.75 0.0
-44.25 -12.75 0.0
-44.75 -12.75 0.0
-45.25 -12.75 0.0
-45.75 -12.75 0.0
-46.25 -12.75 0.0
-46.75 -12.75 0.0
-47.25 -12.75 0.0
-47.75 -12.75 0.0
-48.25 -12.75 0.0
-48.75 -12.75 0.0
-49.25 -12.75 0.0
-49.75 -12.75 0.0
-50.25 -12.75 0.0
-50.75 -12.75 0.0
-51.25 -12.75 0.0
-51.75 -12.75 0.0
-52.25 -12.75 0.0
-52.75 -12.75 0.0
-53.25 -12.75 0.0
-53.75 -12.75 0.0
-54.25 -12.75 0.0
-54.75 -12.75 0.0
-55.25 -12.75 0.0
-55.75 -12.75 0.0
-56.25 -12.75 0.0
-6.25 -13.25 0.0
-6.75 -13.25 0.0
-7.25 -13.25 0.0
-7.75 -13.25 0.0
-8.25 -13.25 0.0
-8.75 -13.25 0.0
-9.25 -13.25 0.0
-9.75 -13.25 0.0
-10.25 -13.25 0.0
-10.75 -13.25 0.0
-11.25 -13.25 0.0
-11.75 -13.25 0.0
-12.25 -13.25 0.0
-12.75 -13.25 0.0
-13.25 -13.25 0.0
-13.75 -13.25 0.0
-14.25 -13.25 0.0
-14.75 -13.25 0.0
-15.25 -13.25 0.0
-15.75 -13.25 0.0
-16.25 -13.25 0.0
-16.75 -13.25 0.0
-17.25 -13.25 0.0
-17.75 -13.25 0.0
-18.25 -13.25 0.0
-18.75 -13.25 0.0
-19.25 -13.25 0.0
-19.75 -13.25 0.0
-20.25 -13.25 0.0
-20.75 -13.25 0.0
-21.25 -13.25 0.0
-21.75 -13.25 0.0
-22.25 -13.25 0.0
-22.75 -13.25 0.0
-23.25 -13.25 0.0
-23.75 -13.25 0.0
-24.25 -13.25 0.0
-24.75 -13.25 0.0
-25.25 -13.25 0.0
-25.75 -13.25 0.0
-26.25 -13.25 0.0
-26.75 -13.25 0.0
-27.25 -13.25 0.0
-27.75 -13.25 0.0
-28.25 -13.25 0.0
-28.75 -13.25 0.0
-29.25 -13.25 0.0
-29.75 -13.25 0.0
-30.25 -13.25 0.0
-30.75 -13.25 0.0
-31.25 -13.25 0.0
-31.75 -13.25 0.0
-32.25 -13.25 0.0
-32.75 -13.25 0.0
-33.25 -13.25 0.0
-33.75 -13.25 0.0
-34.25 -13.25 0.0
-34.75 -13.25 0.0
-35.25 -13.25 0.0
-35.75 -13.25 0.0
-36.25 -13.25 0.0
-36.75 -13.25 0.0
-37.25 -13.25 0.0
-37.75 -13.25 0.0
-38.25 -13.25 0.0
-38.75 -13.25 0.0
-39.25 -13.25 0.0
-39.75 -13.25 0.0
-40.25 -13.25 0.0
-40.75 -13.25 0.0
-41.25 -13.25 0.0
-41.75 -13.25 0.0
-42.25 -13.25 0.0
-42.75 -13.25 0.0
-43.25 -13.25 0.0
-43.75 -13.25 0.0
-44.25 -13.25 0.0
-44.75 -13.25 0.0
-45.25 -13.25 0.0
-45.75 -13.25 0.0
-46.25 -13.25 0.0
-46.75 -13.25 0.0
-47.25 -13.25 0.0
-47.75 -13.25 0.0
-48.25 -13.25 0.0
-48.75 -13.25 0.0
-49.25 -13.25 0.0
-49.75 -13.25 0.0
-50.25 -13.25 0.0
-50.75 -13.25 0.0
-51.25 -13.25 0.0
-51.75 -13.25 0.0
-52.25 -13.25 0.0
-52.75 -13.25 0.0
-53.25 -13.25 0.0
-53.75 -13.25 0.0
-54.25 -13.25 0.0
-54.75 -13.25 0.0
-55.25 -13.25 0.0
-55.75 -13.25 0.0
-56.25 -13.25 0.0
-6.25 -13.75 0.0
-6.75 -13.75 0.0
-7.25 -13.75 0.0
-7.75 -13.75 0.0
-8.25 -13.75 0.0
-8.75 -13.75 0.0
-9.25 -13.75 0.0
-9.75 -13.75 0.0
-10.25 -13.75 0.0
-10.75 -13.75 0.0
-11.25 -13.75 0.0
-11.75 -13.75 0.0
-12.25 -13.75 0.0
-12.75 -13.75 0.0
-13.25 -13.75 0.0
-13.75 -13.75 0.0
-14.25 -13.75 0.0
-14.75 -13.75 0.0
-15.25 -13.75 0.0
-15.75 -13.75 0.0
-16.25 -13.75 0.0
-16.75 -13.75 0.0
-17.25 -13.75 0.0
-17.75 -13.75 0.0
-18.25 -13.75 0.0
-18.75 -13.75 0.0
-19.25 -13.75 0.0
-19.75 -13.75 0.0
-20.25 -13.75 0.0
-20.75 -13.75 0.0
-21.25 -13.75 0.0
-21.75 -13.75 0.0
-22.25 -13.75 0.0
-22.75 -13.75 0.0
-23.25 -13.75 0.0
-23.75 -13.75 0.0
-24.25 -13.75 0.0
-24.75 -13.75 0.0
-25.25 -13.75 0.0
-25.75 -13.75 0.0
-26.25 -13.75 0.0
-26.75 -13.75 0.0
-27.25 -13.75 0.0
-27.75 -13.75 0.0
-28.25 -13.75 0.0
-28.75 -13.75 0.0
-29.25 -13.75 0.0
-29.75 -13.75 0.0
[...]
CELL_DATA 4000 
FIELD FieldData  2
density 1 4000 float
0.18360659227542978
0.18851346041225298
0.17810748333232704
0.17132952404619983
0.22874608044849415
0.21707509508240833
0.2853609248030518
0.27296657850171
0.30560982933517244
0.29702016421884214
0.2712594691899668
0.28912244530130243
0.26190292095799483
0.26094202703637853
0.26014516445132535
0.26443379827793306
0.21418656202470343
0.24172817275314826
0.14727441268358965
0.18127374267861046
0.10920788604761868
0.13442783797101648
0.10450809209922139
0.11508635936690316
0.1018676158492125
0.10757225535257979
0.08685460424794322
0.10710710438337187
0.06657382875785346
0.07954684184176669
0.05967053753719485
0.06586745129288363
0.04601565569561375
0.05591623877470919
0.026833788680715797
0.03294810953426759
0.016790722286261724
0.022727011886721056
0.012941979036588665
0.01632035513475832
0.008221530731367204
0.010373132406734778
0.008984387006774355
0.008617746705379094
0.01553889174935447
0.012569046527932125
0.0462531141333657
0.03346269902061862
0.0926685125829228
0.07599684773773507
0.15528288510923266
0.13339767442471046
0.2992543067033258
0.2465750231387434
0.37479307097379816
0.36035422108596693
0.3492639124209255
0.36777085460538594
0.24786359128608257
0.28138325508550044
0.23995912403111136
0.2545954328650879
0.22629081961059397
0.23871455624722307
0.20624574498777276
0.22544715101357604
0.1925638839123667
0.2184423493150995
0.1719619217997253
0.1939923435322857
0.18129311884723467
0.18420528951647355
0.13344495305517623
0.16252740244034072
0.06766726678549362
0.09580419142233425
0.03663395497931433
0.04963380696438021
0.024751949017432474
0.025783614619622728
0.024957399083514117
0.020393956987943454
0.03179362133229525
0.024904972619364106
0.058227366832098386
0.040570898933281245
0.09704398199159481
0.07148200739465123
0.1295392552864354
0.10201520652046868
0.18281884822930466
0.1656497706038001
0.23632985423233888
0.24141770590133782
0.32093316110758097
0.30959423025476046
0.38177197165511173
0.35602565929510627
0.41923257580290285
0.3841299539818128
0.4542211041571077
0.4382568487162523
0.37854984255692287
0.3797862153772491
0.27084463363224487
0.2965420776593153
0.13300078886013145
0.17564845377673982
0.061672890588177584
0.08236072153481871
0.02185062522136747
0.03641674791022844
0.007886459734709075
0.010949783668562852
0.005012655997282802
0.0065891624519060525
0.0037043447100724475
0.004347228738036218
0.00398342307546841
0.003934589185802999
0.005161157678218796
0.0051059992277964995
0.008378931742702685
0.008112804360185053
0.009294732631271032
0.01078019714638688
0.006999289332237288
0.008276232144899165
0.005930600324059748
0.007538433350262521
0.007523844114308426
0.007832373972373335
0.011442298690953388
0.012769671453206476
0.02185508756536278
0.018186112621753035
0.060255156383303476
0.044095948348633
0.15614494633312415
0.12333118920806854
0.22794765970952524
0.2162405346177692
0.23856459737838007
0.24435474419232794
0.1983563670231259
0.21021778771355767
0.17460480208184465
0.18968650956981606
0.08815896421628609
0.12128365059617062
0.04516076164473457
0.06331389300386822
0.035181162053477606
0.0420053519230234
0.026700965866133197
0.03518717598919674
0.03174088406893083
0.030514153389676453
0.06074836070379906
0.05024659209642773
0.10859530939542617
0.08667525791707804
0.17569545207637824
0.1431677912617103
0.24203312679145034
0.20545018784860505
0.2676245300942831
0.24486650057864784
0.2225957051711412
0.22989834394582337
0.13526369109529035
0.1543916934932652
0.0836062836322034
0.10447546934768334
0.06223098321660319
0.06797692741432589
0.05480241810062338
0.0671102134161884
0.04499513097176011
0.052317398000891586
0.06094993105756317
0.0610779445739135
0.10315972553167835
0.08827963067556373
0.15517224950655775
0.14274593114483203
0.21170891711240264
0.18878766640931532
0.2575172095375617
0.2348298327238876
0.2873891940339251
0.2931916341791128
0.3208920774948157
0.32231231348706185
0.39528079168080205
0.37557396736388554
0.44573381286655417
0.4168140248645775
0.47219479881648846
0.47580849920421475
0.16473635770740325
0.15978441998752124
0.17940455630763585
0.16469859097274644
0.21866735909353935
0.18113572204401213
0.2494772399655828
0.22038280131205817
0.27153925547443103
0.24172834972489038
0.2586435595662345
0.25465518640596224
0.26203163954021313
0.25523544239574575
0.26645059745612193
0.26389405532323174
0.23231302351621264
0.24463382108064285
0.17751291992612508
0.1932706854529046
0.1449134034993682
0.15790433342412466
0.14185863345855312
0.15867363706043772
0.12796897147817765
0.14972794614351936
0.11961412082531035
0.1338250041759174
0.09416526917141614
0.11079766367307758
0.08422359608160852
0.09739663603716035
0.06331392315230897
0.07467411527080053
0.035162947833225364
0.0493474554942564
0.025995262449235088
0.03225727646063482
0.0181869325939645
0.0247155445664562
0.011729838922573503
0.015572536600605154
0.012321370059149201
0.013398836641266898
0.019583430587343402
0.019418478836276974
0.04558353976943768
0.03540680997083505
0.09601234019306613
0.07874928672865351
0.16888680797903882
0.13632698073624025
0.29672771174008256
0.2567395989176277
0.3570114505742945
0.3495998770501702
0.3668034052893435
0.38424428975890085
0.31000682716266975
0.356397774880908
0.2897619636272206
0.32574748931872327
0.2893839727947569
0.31680644083283743
0.2539854060905515
0.27602139214618787
0.25197811234616363
0.27106065288738923
0.22087612385328187
0.2572718576006389
0.194491849330926
0.22464341148687617
0.1532420271241359
0.17809863934746514
0.08288863686517861
0.10925090965978249
0.046704890520584796
0.06541886155198608
0.02059140249165402
0.026075774858943718
0.01568924756292198
0.01394391781909176
0.023486060418019112
0.01888959613441244
0.03462635065594062
0.026223853507553598
0.06212943983539824
0.0443220938807613
0.10510506421292283
0.07747315077973779
0.20024211795373498
0.17737738308592307
0.2806220268560593
0.26977645376676307
0.3370711899160986
0.32606201996720713
0.3647314099628548
0.37223324094300825
0.38696751819620867
0.37047349289767406
0.387141458918952
0.3913451642440146
0.35342584957680095
0.35450989015954393
0.2754984417657713
0.30274522948287325
0.15831844705619147
0.19514522634144577
0.07639301011580756
0.10809343440456112
0.030489147211055737
0.0461485885886743
0.010672874311962555
0.016039672521172055
0.006621810548803062
0.008680707937930833
0.004885853002785928
0.006068623303758124
0.006081350236395053
0.006988990926037867
0.008599117934256727
0.008327962790042555
0.013121552751367751
0.013822268123765
0.014591378365618534
0.017788393034303376
0.010227694832589541
0.013172803605514191
0.010633346958431239
0.011323446061107283
0.013546900307809018
0.01418816721072734
0.017692828154898154
0.018895154724061485
0.025463369614270714
0.02296489776539029
0.06520085365804462
0.04724571570089523
0.1502950522938972
0.1132898357570303
0.21198575603809672
0.18970951367960515
0.23050802532003925
0.2057688271057799
0.22801637501544927
0.22315458302307284
0.19357834360023252
0.21673377988372722
0.12242209812803963
0.15551299080798806
0.07096103334605308
0.09651797248674894
0.05247156337515942
0.06166121645067646
0.043137738148075894
0.05419587102260523
0.0406902881628107
0.04378482569655497
0.06321570225450661
0.05635695306275125
0.10426751420582907
0.09052897987054798
0.149009946487269
0.13178030108470792
0.1800534173127891
0.16504021374269717
0.20901673688605313
0.19233139440477806
0.19325452414046268
0.20001997402619162
0.1470934573933341
0.1684832194468264
0.10054736879852647
0.12196247309443493
0.086174424489431
0.09408938000076472
0.07935318060896324
0.09186817258916893
0.07379508289840861
0.08154704127520775
0.08567465824669493
0.08622594647947325
0.11791246512014128
0.11815350931882448
0.1701976171405314
0.16739622929425396
0.21163048108304394
0.20994035915992856
0.2748255639396305
0.27691145683857127
0.33191334830293956
0.3390562299402547
0.37429333268706994
0.37300272679323326
0.41087285024256603
0.41095993656115654
0.4504133092769337
0.4360146514907046
0.5142415777503663
0.5087894047144864
0.13660778947952737
0.11933610749683983
0.14296391504687095
0.12312207460782877
0.1602733282803377
0.13614197838176234
0.17534717607779726
0.15213398047560953
0.21053296191541895
0.182246487408798
0.23877440729667035
0.21262933419560057
0.2659222173842136
0.2521111222835415
0.25561609470411867
0.26559483257222877
0.21566030038011708
0.22293608762166817
0.20208727215113045
0.20211584266145527
0.1818613063359184
0.20292061825480584
0.1835491348863215
0.2007920541165737
0.17137472031839918
0.18373267963368473
0.14200457640363337
0.16202263935178446
0.12413790411738865
0.1415176371194
0.10415655053495496
0.12539079771091866
0.08027980719204147
0.08828076964482988
0.05152771657507537
0.067286128654837
0.03350672968607474
0.04213831268178328
0.027435255146687047
0.03222799202378555
0.019317339755434686
0.02379156526144481
0.019971563397284113
0.02143483761612573
0.028485484972707396
0.0283566746258887
0.05537160040527892
0.044858346937049896
0.11433065332534863
0.10082225829897522
0.1871983003791425
0.17307603201166183
0.29336588485768056
0.2800654651169124
0.3777875277753578
0.3612619096680529
0.41518163806375397
0.4242053520604028
0.4001430585932341
0.43413980798686214
0.3701143674129555
0.4054173633518461
0.35784750172915636
0.3942432704054449
0.3299184797300938
0.3517726998855966
0.3570654074960604
0.38226326746757017
0.3136237538540686
0.3642188398557735
0.24853086270583405
0.2966709353716199
0.18551786344958543
0.2208375229663395
0.09727198763926723
0.1283625746906899
0.05284205642173992
0.06912756676809872
0.018930770561347364
0.025961780803786225
0.012886000846745373
0.012890446564591627
0.01601610488948185
0.01267943252050039
0.02501337210031917
0.019652819387879817
0.04535376027822318
0.03477706028776282
0.09448398162681859
0.07177454667215803
0.21130482114909685
0.16930693662321092
0.3059372367914555
0.2813209828713868
0.35200587438683745
0.32981909016289757
0.38630583483548137
0.38605376246208223
0.3885791125591308
0.3919434599409608
0.3952788992147647
0.3952155788303155
0.34028604421796416
0.3545468918434461
0.25216199860901767
0.280898842127087
0.16398601683124672
0.1860245112743052
0.08271534219464227
0.10444627437296504
0.0323401275737601
0.045119065400407235
0.016263056057092485
0.022230767065397436
0.01086581059794044
0.014766211492428953
0.009037734397620931
0.010913250948522451
0.01099793551013082
0.012630084094048161
0.012137080849583762
0.012595632312400393
0.018893897896622883
0.017574504778064153
0.019334383730593083
0.021042590212656503
0.013590754887461764
0.016422756377983575
0.014701034435418925
0.014510842264584382
0.016465527476185102
0.01641778350812721
0.020944182044465794
0.0210745749159615
0.02910385668894111
0.02809530227491253
0.060671829187767624
0.04417627053445602
0.13210020261206634
0.1007901242550279
0.1785702421282637
0.15895111533176562
0.19958091497845765
0.1814915544942956
0.22199813481361327
0.2058720244999587
0.20367613662129383
0.21865582040977208
0.15780879459021852
0.18756880329252576
0.1028500425437737
0.12564737126084435
0.08233789039555664
0.10092774350604704
0.0648926824269028
0.08548948622382678
0.057713693555753356
0.07268645952849179
0.08491726638061793
0.08506816634023107
0.12043758237414232
0.12326488118172356
0.1488250475543116
0.15510607815803204
0.17114997143049648
0.17038613528080454
0.1856703569864102
0.18785827607090322
0.19285013975735857
0.20198442959190935
0.15962116189404169
0.17345219069013015
0.11773143184368719
0.13251544129225618
0.11467622035861816
0.11764178199666692
0.11443837455481042
0.12335455158813556
0.11364026980591196
0.12739662996647041
0.12167390894004973
0.13604021381761608
0.1630479698859588
0.17675599045230003
0.20236209180781645
0.19787615916280107
0.25013028659761005
0.2412997962513607
0.32286094142232147
0.3099432174460471
0.3765367847459388
0.36654548105539103
0.42886247132179295
0.4197644598198781
0.46793447803231897
0.4664182464433454
0.48811294842452085
0.5013875940710538
0.5478780058341575
0.541309410216839
0.09451547477449354
0.08742684807594979
0.09803086275813752
0.09060393257177168
0.11547636038330027
0.10004154333792994
0.13873374725755788
0.11723830944915939
0.16603472369710726
0.14525473212116605
0.1982473186019657
0.17781843883050202
0.24317777028744045
0.21740229430928706
0.2396621730888455
0.23685889208491534
0.2066339092347597
0.21090838693916525
0.20773234808251306
0.2181333770714818
0.22351650287622718
0.2386291210051187
0.22818301550877695
0.24116412181990599
0.21228243381603598
0.23493682869136953
0.18353349238622066
0.21333871413748914
0.16478451779339462
0.17748193488022662
0.1340375476265669
0.1576705281189017
0.10613592059810927
0.12455097567793467
0.0767150472976102
0.09902756513867282
0.049671155069411665
0.06685131069234533
0.037623911775899854
0.04720837804695653
0.031218771461134016
0.03671540397845249
0.028171943469878148
0.03298495735916143
0.03773762856335496
0.0376942105761143
0.06731696597715293
0.057814813069666945
0.14559373075481735
0.12275452011555653
0.23802819429649202
0.2257480011714084
0.33977127460425954
0.3132586470559295
0.413773628163146
0.390699628117802
0.4562338601926985
0.4458796144669612
0.48284116454452175
0.4937001576261559
0.4520223100484433
0.49230202241884474
0.41739190832642525
0.4484933192292319
0.3880809825151133
0.4052711417651396
0.41447801227794634
0.4277361747613237
0.3976586565594176
0.42670401778726913
0.29511662505354724
0.342190346505657
0.20744984558486554
0.23743156022745474
0.11312959763371681
0.1464436480637374
0.051270890463151204
0.07038790014295798
0.017680330865786135
0.025164744505483096
0.010641636736237033
0.011747717635532662
0.013604095937023795
0.012245878752254882
0.021386422212187606
0.018180735329799934
0.04346849295903275
0.03381983907299311
0.095193277390695
0.07228964922534523
0.19941702970382463
0.15599873972480077
0.2787198495068644
0.2562478550240894
0.3394516974850578
0.3201645479167238
0.39226083446454146
0.3887034529747327
0.41308841120511147
0.4241092827027248
0.39818554919182275
0.4107685300605427
0.32350675403382295
0.3421536250942842
0.2333297419889219
0.25343239442890564
0.14680901311767894
0.1700596194408261
0.09154341947248403
0.10896074884859454
0.04185510179523331
0.055032368321196116
0.0260095255415213
0.03481762186252831
0.017894833061947377
0.02350780173431651
0.017540792799652708
0.019582471326726032
0.0162990035148858
0.019396489920631227
0.015221983235039812
0.01666456552232798
0.023099245890086457
0.02200400197000771
0.021967867161833608
0.02517237686282645
0.01758638189166377
0.020173123172838734
0.017723133296313275
0.01891124955259898
0.01837526383769848
0.018643977617727882
0.02358396384109135
0.02095167543767795
0.029934249373483036
0.024353487084309667
0.05566558260811704
0.04180875183212638
0.10394379811579854
0.07984892735305733
0.15020288555064754
0.12953639852218082
0.1636166388340822
0.1443127991416068
0.20857159716947093
0.1826386803421609
0.2193571797236291
0.22196684177219267
0.1787046782027974
0.20115676953549058
0.13598632121710577
0.16094705700863923
0.14249745148890314
0.16462282889768243
0.12931235396836474
0.1682569757573331
0.11346717580499084
0.1458083332704447
0.1409894987172285
0.16199599337309165
0.17230038687712823
0.19573658292965426
0.199193235160297
0.20899170507826245
0.19567489696237134
0.21235852450951181
0.22554919479383462
0.22124589465003466
0.22386393333464358
0.2440068424922291
0.1703332685344612
0.1925002653310665
0.136478258210693
0.15425501516536094
0.13502309983960173
0.14498270545815137
0.1469989815517332
0.1614226615379221
0.1689286392577708
0.17838312256904756
0.1853830372837355
0.19377128821473724
0.20865130387203587
0.2156583239452681
0.24045049904956473
0.23888485463207143
0.2803060389577138
0.2730912950212663
0.3563995608912993
0.33875017416283654
0.39161596115406483
0.37720012845909
0.43199846072366005
0.4166608521914041
0.4677145424452588
0.4393499541046169
0.5163352051929506
0.4855370885779191
0.5601235623026187
0.5247699105719406
0.08421417967244271
0.08804423336589146
0.09160194426033913
0.08916050846259742
0.1070217065664843
0.10155477766095754
0.12377440844194598
0.11471169993567183
0.14952874302938898
0.12884118889803065
0.16530184766777564
0.1562762777196707
0.1837866529619331
0.15970013531041538
0.20067862215252977
0.1804127820514226
0.2085730122224272
0.20192869294006474
0.23822389899758822
0.23136798539785727
0.27328860464271904
0.273881617477945
0.2722279022678101
0.27695687974964595
0.25673142085173195
0.2686860033280568
0.21888261026925268
0.25100343064688274
0.19755423893916887
0.22521334207050278
0.173776833046586
0.19908388232782004
0.13981173068016972
0.15619274096851213
0.11114368126061908
0.13543106044084666
0.07319944206075882
0.10189235840343515
0.058164187176751266
0.07303503086961509
0.046542150423589924
0.05891381111488662
0.04805858095057838
0.05549824952096371
0.05346410152299801
0.05938379912948014
0.08615908200125356
0.07769152413263751
0.17838797726915118
0.14993124475791672
0.2771947953928538
0.2548211718359096
0.35835104695994413
0.3452078452212484
0.4149349541419163
0.40213823739350385
0.4825413009164346
0.4673904001050798
0.5172189130135956
0.5103386585784053
0.5078812435318087
0.5131851286601244
0.45559577885914454
0.4793922858220278
0.4324267155297482
0.44131310951662106
0.4415658213593379
0.4388243843004318
0.42849307371311274
0.43965490595844103
0.3189527623326136
0.36155081702011926
0.21146668127001436
0.25322698985926856
0.12989811332292545
0.16708268864102374
0.05775319395075679
0.08764543894249567
0.019304799292319503
0.02898434742318312
0.011354905774550915
0.013052451038143106
0.014201177235858689
0.012938170342025088
0.020687845183515883
0.01728107268701199
0.04128641831402611
0.032052421824307745
0.09440100114658741
0.07030476556978939
0.19544629805379424
0.16884448174348926
0.27589801707920203
0.2560255656088847
0.3658555036172106
0.3542362094277582
0.4210584098576634
0.4199755638276607
0.43291942274534656
0.4353040121264846
0.3720447366617698
0.38580087444139244
0.30664599582934327
0.31691405905395875
0.2343901096399607
0.2505650302123378
0.1593616043088894
0.18753017365236355
0.10463847260862211
0.1228624140996142
0.057429766189329885
0.07414929640887137
0.0394314013127356
0.04619908376961442
0.026228186762783746
0.0334027020859561
0.02428657738930645
0.02835148233916896
0.021925648177349173
0.025659510097654943
0.022249062425279575
0.024508916671495108
0.027817722978698344
0.02929281139860601
0.03013020119394335
0.03619733343427547
0.024662968804954645
0.029615181703187932
0.019706315445441453
0.022167600604102045
0.018587006635923876
0.019647825264110838
0.018711590115684438
0.01942521036762795
0.02251666087794944
0.018686843978880516
0.04099246320405976
0.028571571712593707
0.075343236607553
0.054510927398555155
0.11162972220642058
0.08831027924477794
0.13323043891004607
0.11119271958187565
0.17220495695973337
0.14627859963980347
0.2064597248049835
0.18263301846552413
0.1994851616243048
0.2032333118719094
0.1880185397106638
0.20625026769781848
0.23440455809681024
0.25342488604290053
0.25173929773525866
0.2947111564069642
0.23171253923914553
0.2799547128121407
0.24856493038389837
0.28398342364920687
0.26458385478613566
0.29637678004531304
0.25876833976536245
0.28566335386958913
0.2563518874325028
0.2779618257377693
0.2555463768030009
0.2759100143454934
0.2522002836573066
0.2692948204893587
0.20243048151685825
0.23948745464394974
0.18006524858656325
0.19989687116391872
0.18613561462745307
0.20238113700372004
0.20068817299142339
0.2194803999065266
0.21794550105311508
0.22937613575142157
0.2220155147739956
0.23416657987360942
0.24764610881407392
0.2562704949727297
0.26389621588427054
0.26886617274827357
0.30548533477537443
0.2969668205550783
0.3405497069869225
0.31808159863644836
0.3721098175514794
0.339319091810574
0.39679668110469046
0.37526019636214936
0.4044195912410381
0.38142928067747023
0.4594150246735866
0.42635583366775937
0.4800154008395203
0.4588895714973322
0.08955901761574857
0.10029953098635833
0.08739926940996394