# vtk DataFile Version 1.0
Bar_TO_3D
ASCII
DATASET UNSTRUCTURED_GRID
POINTS 561 float 
-6.25 -11.25 0.0
-7.25 -11.25 0.0
-8.25 -11.25 0.0
-9.25 -11.25 0.0
-10.25 -11.25 0.0
-11.25 -11.25 0.0
-12.25 -11.25 0.0
-13.25 -11.25 0.0
-14.25 -11.25 0.0
-15.25 -11.25 0.0
-16.25 -11.25 0.0
-17.25 -11.25 0.0
-18.25 -11.25 0.0
-19.25 -11.25 0.0
-20.25 -11.25 0.0
-21.25 -11.25 0.0
-22.25 -11.25 0.0
-23.25 -11.25 0.0
-24.25 -11.25 0.0
-25.25 -11.25 0.0
-26.25 -11.25 0.0
-27.25 -11.25 0.0
-28.25 -11.25 0.0
-29.25 -11.25 0.0
-30.25 -11.25 0.0
-31.25 -11.25 0.0
-32.25 -11.25 0.0
-33.25 -11.25 0.0
-34.25 -11.25 0.0
-35.25 -11.25 0.0
-36.25 -11.25 0.0
-37.25 -11.25 0.0
-38.25 -11.25 0.0
-39.25 -11.25 0.0
-40.25 -11.25 0.0
-41.25 -11.25 0.0
-42.25 -11.25 0.0
-43.25 -11.25 0.0
-44.25 -11.25 0.0
-45.25 -11.25 0.0
-46.25 -11.25 0.0
-47.25 -11.25 0.0
-48.25 -11.25 0.0
-49.25 -11.25 0.0
-50.25 -11.25 0.0
-51.25 -11.25 0.0
-52.25 -11.25 0.0
-53.25 -11.25 0.0
-54.25 -11.25 0.0
-55.25 -11.25 0.0
-56.25 -11.25 0.0
-6.25 -12.25 0.0
-7.25 -12.25 0.0
-8.25 -12.25 0.0
-9.25 -12.25 0.0
-10.25 -12.25 0.0
-11.25 -12.25 0.0
-12.25 -12.25 0.0
-13.25 -12.25 0.0
-14.25 -12.25 0.0
-15.25 -12.25 0.0
-16.25 -12.25 0.0
-17.25 -12.25 0.0
-18.25 -12.25 0.0
-19.25 -12.25 0.0
-20.25 -12.25 0.0
-21.25 -12.25 0.0
-22.25 -12.25 0.0
-23.25 -12.25 0.0
-24.25 -12.25 0.0
-25.25 -12.25 0.0
-26.25 -12.25 0.0
-27.25 -12.25 0.0
-28.25 -12.25 0.0
-29.25 -12.25 0.0
-30.25 -12.25 0.0
-31.25 -12.25 0.0
-32.25 -12.25 0.0
-33.25 -12.25 0.0
-34.25 -12.25 0.0
-35.25 -12.25 0.0
-36.25 -12.25 0.0
-37.25 -12.25 0.0
-38.25 -12.25 0.0
-39.25 -12.25 0.0
-40.25 -12.25 0.0
-41.25 -12.25 0.0
-42.25 -12.25 0.0
-43.25 -12.25 0.0
-44.25 -12.25 0.0
-45.25 -12.25 0.0
-46.25 -12.25 0.0
-47.25 -12.25 0.0
-48.25 -12.25 0.0
-49.25 -12.25 0.0
-50.25 -12.25 0.0
-51.25 -12.25 0.0
-52.25 -12.25 0.0
-53.25 -12.25 0.0
-54.25 -12.25 0.0
-55.25 -12.25 0.0
-56.25 -12.25 0.0
-6.25 -13.25 0.0
-7.25 -13.25 0.0
-8.25 -13.25 0.0
-9.25 -13.25 0.0
-10.25 -13.25 0.0
-11.25 -13.25 0.0
-12.25 -13.25 0.0
-13.25 -13.25 0.0
-14.25 -13.25 0.0
-15.25 -13.25 0.0
-16.25 -13.25 0.0
-17.25 -13.25 0.0
-18.25 -13.25 0.0
-19.25 -13.25 0.0
-20.25 -13.25 0.0
-21.25 -13.25 0.0
-22.25 -13.25 0.0
-23.25 -13.25 0.0
-24.25 -13.25 0.0
-25.25 -13.25 0.0
-26.25 -13.25 0.0
-27.25 -13.25 0.0
-28.25 -13.25 0.0
-29.25 -13.25 0.0
-30.25 -13.25 0.0
-31.25 -13.25 0.0
-32.25 -13.25 0.0
-33.25 -13.25 0.0
-34.25 -13.25 0.0
-35.25 -13.25 0.0
-36.25 -13.25 0.0
-37.25 -13.25 0.0
-38.25 -13.25 0.0
-39.25 -13.25 0.0
-40.25 -13.25 0.0
-41.25 -13.25 0.0
-42.25 -13.25 0.0
-43.25 -13.25 0.0
-44.25 -13.25 0.0
-45.25 -13.25 0.0
-46.25 -13.25 0.0
-47.25 -13.25 0.0
-48.25 -13.25 0.0
-49.25 -13.25 0.0
-50.25 -13.25 0.0
-51.25 -13.25 0.0
-52.25 -13.25 0.0
-53.25 -13.25 0.0
-54.25 -13.25 0.0
-55.25 -13.25 0.0
-56.25 -13.25 0.0
-6.25 -14.25 0.0
-7.25 -14.25 0.0
-8.25 -14.25 0.0
-9.25 -14.25 0.0
-10.25 -14.25 0.0
-11.25 -14.25 0.0
-12.25 -14.25 0.0
-13.25 -14.25 0.0
-14.25 -14.25 0.0
-15.25 -14.25 0.0
-16.25 -14.25 0.0
-17.25 -14.25 0.0
-18.25 -14.25 0.0
-19.25 -14.25 0.0
-20.25 -14.25 0.0
-21.25 -14.25 0.0
-22.25 -14.25 0.0
-23.25 -14.25 0.0
-24.25 -14.25 0.0
-25.25 -14.25 0.0
-26.25 -14.25 0.0
-27.25 -14.25 0.0
-28.25 -14.25 0.0
-29.25 -14.25 0.0
-30.25 -14.25 0.0
-31.25 -14.25 0.0
-32.25 -14.25 0.0
-33.25 -14.25 0.0
-34.25 -14.25 0.0
-35.25 -14.25 0.0
-36.25 -14.25 0.0
-37.25 -14.25 0.0
-38.25 -14.25 0.0
-39.25 -14.25 0.0
-40.25 -14.25 0.0
-41.25 -14.25 0.0
-42.25 -14.25 0.0
-43.25 -14.25 0.0
-44.25 -14.25 0.0
-45.25 -14.25 0.0
-46.25 -14.25 0.0
-47.25 -14.25 0.0
-48.25 -14.25 0.0
-49.25 -14.25 0.0
-50.25 -14.25 0.0
-51.25 -14.25 0.0
-52.25 -14.25 0.0
-53.25 -14.25 0.0
-54.25 -14.25 0.0
-55.25 -14.25 0.0
-56.25 -14.25 0.0
-6.25 -15.25 0.0
-7.25 -15.25 0.0
-8.25 -15.25 0.0
-9.25 -15.25 0.0
-10.25 -15.25 0.0
-11.25 -15.25 0.0
-12.25 -15.25 0.0
-13.25 -15.25 0.0
-14.25 -15.25 0.0
-15.25 -15.25 0.0
-16.25 -15.25 0.0
-17.25 -15.25 0.0
-18.25 -15.25 0.0
-19.25 -15.25 0.0
-20.25 -15.25 0.0
-21.25 -15.25 0.0
-22.25 -15.25 0.0
-23.25 -15.25 0.0
-24.25 -15.25 0.0
-25.25 -15.25 0.0
-26.25 -15.25 0.0
-27.25 -15.25 0.0
-28.25 -15.25 0.0
-29.25 -15.25 0.0
-30.25 -15.25 0.0
-31.25 -15.25 0.0
-32.25 -15.25 0.0
-33.25 -15.25 0.0
-34.25 -15.25 0.0
-35.25 -15.25 0.0
-36.25 -15.25 0.0
-37.25 -15.25 0.0
-38.25 -15.25 0.0
-39.25 -15.25 0.0
-40.25 -15.25 0.0
-41.25 -15.25 0.0
-42.25 -15.25 0.0
-43.25 -15.25 0.0
-44.25 -15.25 0.0
-45.25 -15.25 0.0
-46.25 -15.25 0.0
-47.25 -15.25 0.0
-48.25 -15.25 0.0
-49.25 -15.25 0.0
-50.25 -15.25 0.0
-51.25 -15.25 0.0
-52.25 -15.25 0.0
-53.25 -15.25 0.0
-54.25 -15.25 0.0
-55.25 -15.25 0.0
-56.25 -15.25 0.0
-6.25 -16.25 0.0
-7.25 -16.25 0.0
-8.25 -16.25 0.0
-9.25 -16.25 0.0
-10.25 -16.25 0.0
-11.25 -16.25 0.0
-12.25 -16.25 0.0
-13.25 -16.25 0.0
-14.25 -16.25 0.0
-15.25 -16.25 0.0
-16.25 -16.25 0.0
-17.25 -16.25 0.0
-18.25 -16.25 0.0
-19.25 -16.25 0.0
-20.25 -16.25 0.0
-21.25 -16.25 0.0
-22.25 -16.25 0.0
-23.25 -16.25 0.0
-24.25 -16.25 0.0
-25.25 -16.25 0.0
-26.25 -16.25 0.0
-27.25 -16.25 0.0
-28.25 -16.25 0.0
-29.25 -16.25 0.0
-30.25 -16.25 0.0
-31.25 -16.25 0.0
-32.25 -16.25 0.0
-33.25 -16.25 0.0
-34.25 -16.25 0.0
-35.25 -16.25 0.0
-36.25 -16.25 0.0
-37.25 -16.25 0.0
-38.25 -16.25 0.0
-39.25 -16.25 0.0
-40.25 -16.25 0.0
-41.25 -16.25 0.0
-42.25 -16.25 0.0
-43.25 -16.25 0.0
-44.25 -16.25 0.0
-45.25 -16.25 0.0
-46.25 -16.25 0.0
-47.25 -16.25 0.0
-48.25 -16.25 0.0
-49.25 -16.25 0.0
-50.25 -16.25 0.0
-51.25 -16.25 0.0
-52.25 -16.25 0.0
-53.25 -16.25 0.0
-54.25 -16.25 0.0
-55.25 -16.25 0.0
-56.25 -16.25 0.0
-6.25 -17.25 0.0
-7.25 -17.25 0.0
-8.25 -17.25 0.0
-9.25 -17.25 0.0
-10.25 -17.25 0.0
-11.25 -17.25 0.0
-12.25 -17.25 0.0
-13.25 -17.25 0.0
-14.25 -17.25 0.0
-15.25 -17.25 0.0
-16.25 -17.25 0.0
-17.25 -17.25 0.0
-18.25 -17.25 0.0
-19.25 -17.25 0.0
-20.25 -17.25 0.0
-21.25 -17.25 0.0
-22.25 -17.25 0.0
-23.25 -17.25 0.0
-24.25 -17.25 0.0
-25.25 -17.25 0.0
-26.25 -17.25 0.0
-27.25 -17.25 0.0
-28.25 -17.25 0.0
-29.25 -17.25 0.0
-30.25 -17.25 0.0
-31.25 -17.25 0.0
-32.25 -17.25 0.0
-33.25 -17.25 0.0
-34.25 -17.25 0.0
-35.25 -17.25 0.0
-36.25 -17.25 0.0
-37.25 -17.25 0.0
-38.25 -17.25 0.0
-39.25 -17.25 0.0
-40.25 -17.25 0.0
-41.25 -17.25 0.0
-42.25 -17.25 0.0
-43.25 -17.25 0.0
-44.25 -17.25 0.0
-45.25 -17.25 0.0
-46.25 -17.25 0.0
-47.25 -17.25 0.0
-48.25 -17.25 0.0
-49.25 -17.25 0.0
-50.25 -17.25 0.0
-51.25 -17.25 0.0
-52.25 -17.25 0.0
-53.25 -17.25 0.0
-54.25 -17.25 0.0
-55.25 -17.25 0.0
-56.25 -17.25 0.0
-6.25 -18.25 0.0
-7.25 -18.25 0.0
-8.25 -18.25 0.0
-9.25 -18.25 0.0
-10.25 -18.25 0.0
-11.25 -18.25 0.0
-12.25 -18.25 0.0
-13.25 -18.25 0.0
-14.25 -18.25 0.0
-15.25 -18.25 0.0
-16.25 -18.25 0.0
-17.25 -18.25 0.0
-18.25 -18.25 0.0
-19.25 -18.25 0.0
-20.25 -18.25 0.0
-21.25 -18.25 0.0
-22.25 -18.25 0.0
-23.25 -18.25 0.0
-24.25 -18.25 0.0
-25.25 -18.25 0.0
-26.25 -18.25 0.0
-27.25 -18.25 0.0
-28.25 -18.25 0.0
-29.25 -18.25 0.0
-30.25 -18.25 0.0
-31.25 -18.25 0.0
-32.25 -18.25 0.0
-33.25 -18.25 0.0
-34.25 -18.25 0.0
-35.25 -18.25 0.0
-36.25 -18.25 0.0
-37.25 -18.25 0.0
-38.25 -18.25 0.0
-39.25 -18.25 0.0
-40.25 -18.25 0.0
-41.25 -18.25 0.0
-42.25 -18.25 0.0
-43.25 -18.25 0.0
-44.25 -18.25 0.0
-45.25 -18.25 0.0
-46.25 -18.25 0.0
-47.25 -18.25 0.0
-48.25 -18.25 0.0
-49.25 -18.25 0.0
-50.25 -18.25 0.0
-51.25 -18.25 0.0
-52.25 -18.25 0.0
-53.25 -18.25 0.0
-54.25 -18.25 0.0
-55.25 -18.25 0.0
-56.25 -18.25 0.0
-6.25 -19.25 0.0
-7.25 -19.25 0.0
-8.25 -19.25 0.0
-9.25 -19.25 0.0
-10.25 -19.25 0.0
-11.25 -19.25 0.0
-12.25 -19.25 0.0
-13.25 -19.25 0.0
-14.25 -19.25 0.0
-15.25 -19.25 0.0
-16.25 -19.25 0.0
-17.25 -19.25 0.0
-18.25 -19.25 0.0
-19.25 -19.25 0.0
-20.25 -19.25 0.0
-21.25 -19.25 0.0
-22.25 -19.25 0.0
-23.25 -19.25 0.0
-24.25 -19.25 0.0
-25.25 -19.25 0.0
-26.25 -19.25 0.0
-27.25 -19.25 0.0
-28.25 -19.25 0.0
-29.25 -19.25 0.0
-30.25 -19.25 0.0
-31.25 -19.25 0.0
-32.25 -19.25 0.0
-33.25 -19.25 0.0
-34.25 -19.25 0.0
-35.25 -19.25 0.0
-36.25 -19.25 0.0
-37.25 -19.25 0.0
-38.25 -19.25 0.0
-39.25 -19.25 0.0
-40.25 -19.25 0.0
-41.25 -19.25 0.0
-42.25 -19.25 0.0
-43.25 -19.25 0.0
-44.25 -19.25 0.0
-45.25 -19.25 0.0
-46.25 -19.25 0.0
-47.25 -19.25 0.0
-48.25 -19.25 0.0
-49.25 -19.25 0.0
-50.25 -19.25 0.0
-51.25 -19.25 0.0
-52.25 -19.25 0.0
-53.25 -19.25 0.0
-54.25 -19.25 0.0
-55.25 -19.25 0.0
-56.25 -19.25 0.0
-6.25 -20.25 0.0
-7.25 -20.25 0.0
-8.25 -20.25 0.0
-9.25 -20.25 0.0
-10.25 -20.25 0.0
-11.25 -20.25 0.0
-12.25 -20.25 0.0
-13.25 -20.25 0.0
-14.25 -20.25 0.0
-15.25 -20.25 0.0
-16.25 -20.25 0.0
-17.25 -20.25 0.0
-18.25 -20.25 0.0
-19.25 -20.25 0.0
-20.25 -20.25 0.0
-21.25 -20.25 0.0
-22.25 -20.25 0.0
-23.25 -20.25 0.0
-24.25 -20.25 0.0
-25.25 -20.25 0.0
-26.25 -20.25 0.0
-27.25 -20.25 0.0
-28.25 -20.25 0.0
-29.25 -20.25 0.0
-30.25 -20.25 0.0
-31.25 -20.25 0.0
-32.25 -20.25 0.0
-33.25 -20.25 0.0
-34.25 -20.25 0.0
-35.25 -20.25 0.0
-36.25 -20.25 0.0
-37.25 -20.25 0.0
-38.25 -20.25 0.0
-39.25 -20.25 0.0
-40.25 -20.25 0.0
-41.25 -20.25 0.0
-42.25 -20.25 0.0
-43.25 -20.25 0.0
-44.25 -20.25 0.0
-45.25 -20.25 0.0
-46.25 -20.25 0.0
-47.25 -20.25 0.0
-48.25 -20.25 0.0
-49.25 -20.25 0.0
-50.25 -20.25 0.0
-51.25 -20.25 0.0
-52.25 -20.25 0.0
-53.25 -20.25 0.0
-54.25 -20.25 0.0
-55.25 -20.25 0.0
-56.25 -20.25 0.0
-6.25 -21.25 0.0
-7.25 -21.25 0.0
-8.25 -21.25 0.0
-9.25 -21.25 0.0
-10.25 -21.25 0.0
-11.25 -21.25 0.0
-12.25 -21.25 0.0
-13.25 -21.25 0.0
-14.25 -21.25 0.0
-15.25 -21.25 0.0
-16.25 -21.25 0.0
-17.25 -21.25 0.0
-18.25 -21.25 0.0
-19.25 -21.25 0.0
-20.25 -21.25 0.0
-21.25 -21.25 0.0
-22.25 -21.25 0.0
-23.25 -21.25 0.0
-24.25 -21.25 0.0
-25.25 -21.25 0.0
-26.25 -21.25 0.0
-27.25 -21.25 0.0
-28.25 -21.25 0.0
-29.25 -21.25 0.0
-30.25 -21.25 0.0
-31.25 -21.25 0.0
-32.25 -21.25 0.0
-33.25 -21.25 0.0
-34.25 -21.25 0.0
-35.25 -21.25 0.0
-36.25 -21.25 0.0
-37.25 -21.25 0.0
-38.25 -21.25 0.0
-39.25 -21.25 0.0
-40.25 -21.25 0.0
-41.25 -21.25 0.0
-42.25 -21.25 0.0
-43.25 -21.25 0.0
-44.25 -21.25 0.0
-45.25 -21.25 0.0
-46.25 -21.25 0.0
-47.25 -21.25 0.0
-48.25 -21.25 0.0
[...]
CELL_DATA 1000
FIELD FieldData 1
density 1 1000 float
0.982117062641262
0.9856186231430625
0.9623283579863829
0.9548781100987188
0.8838087073211995
0.9011508143087413
0.24813373052297819
0.383671109107811
0.03657711243209708
0.07873548273069914
0.15696664268024996
0.07217672438150391
0.6113018722636874
0.48171745765746715
0.5955450774017225
0.5077294564730472
0.2993096441191823
0.37615764271607216
0.13654307765405688
0.12231907325759755
0.46281601423512286
0.26006178444023614
0.7297244672893892
0.6564793447791694
0.6143135973140551
0.7203829638689804
0.3682046488035846
0.5447634066825517
0.062444308639246666
0.29071256504008586
0.06224603665972387
0.0677568851732
0.16661494227157594
0.22263066950798496
0.5953647277542954
0.42529525819339564
0.829022459441528
0.7279721891151297
0.9234677293312612
0.8796829848564452
0.9080999581280813
0.8861165142665931
0.7863238336179972
0.80781231185947
0.391877244655143
0.46700972624774684
0.21119582201502934
0.20118671660401868
0.17949457401945826
0.14637104775069348
0.11042845932440101
0.08853511936493509
0.1647495084871961
0.07322885368272117
0.3517010522484846
0.18053489486765056
0.34355605512377696
0.386746220693727
0.2744925988063617
0.31836852723133513
0.1325072088537573
0.2762848097015363
0.08738487034128417
0.09808127954030947
0.17282255089530976
0.15192299804079673
0.3412497820862006
0.23209970255499593
0.48555269317037725
0.36746242579303096
0.4743302933288204
0.28870398589849355
0.6069040290967707
0.33049952348700173
0.6007384097733651
0.4253027194028572
0.2694528880741972
0.24108560726015066
0.013043160074597226
0.022680187086257755
0.004638667167686582
0.00229253934767473
0.013406971582521503
0.005662097837573554
0.1280615666377676
0.059813208156983724
0.01893086877121472
0.05500155123640605
0.013487885661341296
0.016880991927416683
0.01176374379101246
0.015657424541187355
0.051782966800434926
0.024491611780065425
0.27508059360927894
0.17482020585231467
0.5259309939656753
0.4710563811491992
0.8481835342504059
0.7771914085790496
0.9755767733410342
0.9777690681331145
0.9383917561931708
0.9504455131917438
0.7384520666058101
0.8225974784178942
0.13109108178512538
0.19976253632574095
0.03434680630273677
0.026168001945975117
0.11692274667800809
0.05130811619538573
0.33460166606304786
0.2537877383713715
0.26903213950838156
0.2242674031701597
0.052692987655756654
0.05438714341091011
0.06540222036533504
0.018830055160591722
0.3208754810538794
0.14542163322331564
0.7642064066818476
0.6337593012829849
0.7870257995503916
0.8129623231516101
0.5515853890924761
0.6708086005350309
0.1944636625825626
0.3053507071659378
0.14638797133185416
0.1291767594962985
0.4108720060306057
0.29698009680506426
0.506238490511385
0.42084970553957596
0.6399198627710284
0.5939402195684371
0.7356173582804831
0.5617562781267406
0.6733221354662098
0.5553164370881589
0.5213438280970221
0.39208054181574004
0.25095963990263
0.2848172454270424
0.10502443754030504
0.10739188874980488
0.025944854423835314
0.03167386871604939
0.026120739575107396
0.011278491501517982
0.03091865906437183
0.019721086996720733
0.2215748299836281
0.08792293576048216
0.3657830725766566
0.35793187703391083
0.33924610876651246
0.3692622110209786
0.20900239719044292
0.26881807717148326
0.19913927384872032
0.24381548037446404
0.19122212396173785
0.2360107734164043
0.2013532967256293
0.18938536055922908
0.07809554648254666
0.07004499245078276
0.03760158520386533
0.020615016429895525
0.08312255171198267
0.034623827161059266
0.07228398523042878
0.023433547387082164
0.04004188849999752
0.023491261211596767
0.003202474443936514
0.006676919370944543
0.0024617514685347256
0.0017820350145309125
0.015363669239668861
0.00967878864252468
0.053400477679295316
0.029927153825534562
0.03743678429852249
0.07145285672779596
0.02593438137953806
0.04428721274637352
0.02578167796073147
0.0367705077181305
0.06947706247746804
0.05756009920948619
0.1981071442239362
0.09405356864203612
0.45988615150388984
0.31606640840636396
0.815469281410753
0.6609095052316444
0.9567675200090615
0.9629089219075028
0.8970339764335707
0.9208480378833243
0.6473807038192584
0.7630576823938523
0.10655659316602424
0.2206156145982558
0.01903198799852285
0.02283634916318032
0.07332822424247529
0.037339458897173605
0.1529058850752164
0.1569362040163831
0.05407264475135765
0.05752092815445098
0.004508809610336775
0.004913494105053678
0.006016239763976157
0.0018143877708162305
0.1274420597971836
0.01691232427634493
0.6373976331203749
0.40149978496049615
0.7160511611851097
0.6533671151531304
0.348324957236609
0.42279417510117984
0.1543855530763159
0.14730955605216844
0.1653600984916133
0.11836769162553865
0.4516531316246048
0.3090248753161459
0.42245896647938014
0.38455526568154447
0.30185414968676444
0.23340682941125954
0.11891261077116715
0.03315577365594836
0.1689298716488619
0.07168262541474948
0.16702161091970794
0.11063847716824836
0.13052111989882612
0.1852557785862979
0.06703387242969101
0.05961915409623452
0.029541592082688937
0.05170293986632898
0.023817603405302538
0.026215709461087772
0.03129688815320652
0.022817355935574653
0.13119847766606924
0.09787412368838669
0.18515067706984614
0.15581092468410954
0.23008872625143856
0.22041929604288543
0.2768695908396294
0.2823218441080921
0.3258383959525232
0.3849288873280593
0.2872237417629069
0.29026695152574755
0.18525421372882842
0.2403446567514398
0.03832562914840651
0.056977493527056736
0.005380007544694992
0.009036625434898998
0.003926131827343398
0.002519620255232137
0.009391060803063043
0.006663978681161858
0.014396135818343175
0.010874730813992046
0.0037741313544571854
0.005974455235938711
0.0022118103324120526
0.002671444108307587
0.014478961658904943
0.0075345757556583935
0.07483206852755703
0.05668412546608088
0.1332664032438508
0.17472448687834904
0.07714249682625753
0.12509646146549244
0.0681747093182176
0.09056740979492378
0.030119358382294282
0.025297227322644274
0.04830206930395364
0.013993580621347593
0.12993411170032435
0.033983690051957664
0.47756534938824025
0.14640551949618902
0.9522542624151314
0.9463014369862549
0.8819841653246003
0.9073214297124189
0.6349585907435568
0.7548239536868481
0.15269118978407728
0.33524751627404514
0.07556553481839223
0.14430294550486902
0.13951578335960624
0.159731347694184
0.10697531079728602
0.1774469978738959
0.008935961682463057
0.03361892694246094
0.0012339338363752683
0.0017424877729317798
0.001139635097544506
0.0010705896619552751
0.016507535220260078
0.002475790790753024
0.2510182510309651
0.05217686588914652
0.3307155785767528
0.15639502032911187
0.1163209778810167
0.0830692719488571
0.042244279849457916
0.022696286066690823
0.07006841777065226
0.030744433378379094
0.29992240698644806
0.17951177905724158
0.13512592608555607
0.169990019914874
0.015445674451912677
0.02000838267997257
0.003011591924827491
0.002051395874089601
0.009546453493863821
0.0025060891023826835
0.09438497724883295
0.02445118466215345
0.165684326947161
0.21934751146551323
0.1369369867235398
0.2234340431528074
0.075924055041388
0.17319805015614492
0.030405215199061586
0.05734064574515645
0.03983589670695226
0.04095729141471784
0.14832525313010086
0.1292836679925235
0.2004291557610121
0.20150681819826083
0.2138431181199702
0.22647001943063935
0.29327681301955133
0.2037272619339463
0.2852920178442616
0.26797797611612634
0.31365010225022505
0.2428099857836015
0.1684800920149939
0.27995012822474286
0.04857551213054793
0.07728447915950641
0.005204682649524849
0.020441994537616096
0.0037433006899294393
0.006471984960140041
0.010474051880875128
0.01378808905040602
0.010010884627134072
0.022679874896253154
0.00902285032757083
0.022462165316675893
0.005570959480450872
0.009525110848543416
0.027485907716933423
0.017506417053241994
0.18764624380080974
0.18235236525256815
0.2642987316779655
0.25141337385113366
0.23890583672906557
0.2777420443329021
0.059215663981348615
0.100491762983991
0.006407276371603137
0.011934146713668641
0.002300084462439479
0.0015321530733315397
0.002661899435695665
0.0013278168515479698
0.02401200721186732
0.002374367246829939
0.8281334568948092
0.6716015327545167
0.7742958144407567
0.7177540215850708
0.6470457422946406
0.6682611683110303
0.4592597612966067
0.5911044134273203
0.3293301480967132
0.4468210935904049
0.4255157190862594
0.4859395798031219
0.3235268410231352
0.497647820308999
0.03575770893148776
0.15601812364860349
0.001380007939592703
0.0049246032595086035
0.0012871931653132235
0.001568449078585471
0.0025180923078976583
0.001848396038866024
0.011973083473966924
0.00470070558763561
0.02887668417081084
0.013497787892454979
0.01055230881597313
0.006829688532189936
0.005769549114078609
0.006204163565118226
0.03682629735470716
0.019803210289625645
0.2197351152469521
0.17400209107342046
0.07947341314550356
0.12468891407914648
0.0038952094278556673
0.007534949522317309
0.0011693754645424148
0.001177140422547724
0.002628472931519924
0.0015855135939176587
0.04495123080230323
0.028796719000082
0.2610863635765749
0.20482934369786276
0.3831444038766555
0.41339218360559915
0.28951940148121647
0.3916918219004125
0.17482682962816326
0.270398036574997
0.13158100352127233
0.16456576802190867
0.17313883948274192
0.14553846176160892
0.19280945014829773
0.16787930956411287
0.15046126642219282
0.16417542644929417
0.1441919283361523
0.13874048881530232
0.10467465108765199
0.07442944254939449
0.11535625053067229
0.04405045721154861
0.23211410082195516
0.13954049947921124
0.18912218617577653
0.3075381323363382
0.10431765515622178
0.22650306903199377
0.037210045731737584
0.09211081740886522
0.05135265722259238
0.0736230146196304
0.12827734526012374
0.1433463491012064
0.046975385563892406
0.13333217432812833
0.019467158193667053
0.030172128222681054
0.046124778427742805
0.03333013296001263
0.14116762913263353
0.11259254393513643
0.25054802397553877
0.1576236809108078
0.2109531570951231
0.22232029866126818
0.023259894334463144
0.037336078790569674
0.001936503301662737
0.003361699944828443
0.0010513768590547131
0.00106718349474645
0.001113946849696644
0.0010472940254550806
0.0011738166551776227
0.0010625361793808197
0.41746453176360765
0.20918187761418391
0.5551254610600592
0.4312119927763639
0.5563155272872696
0.45325916309735576
0.6433577699137217
0.6310476420102655
0.6613709190149887
0.7431148493809632
0.7146517338566222
0.7741171759887091
0.4898943777599601
0.5945885118447267
0.15820916640963706
0.37447198842146806
0.014380620386570515
0.07997826687773084
0.006113162871244907
0.028107281349309975
0.00325233263136392
0.006442180559937436
0.005393115517951279
0.003929738629467645
0.0035969344945960646
0.0034834650366457505
0.005728757965477458
0.004755738781960098
0.01353406811583788
0.013975150537442353
0.06277124306108471
0.050335742067894575
0.10366336704020661
0.11606187064734537
0.029829568667783402
0.04461354441072539
0.0030856709868197644
0.009012968482449129
0.0015150266674715629
0.0025779007984201028
0.0057368081820079585
0.003327540303765823
0.04001921449462998
0.013761018380336491
0.32922318350711355
0.1767677595649252
0.4536148581286489
0.4497435622545614
0.40745896648977836
0.5061025877787079
0.1781118566531504
0.27425628450509754
0.15967687457202617
0.1582815260118353
0.2560518071349111
0.2052292878610429
0.33255711295401785
0.36763590775406196
0.21922794925635042
0.22161643835225303
0.05997814530121617
0.055324668576212696
0.011108820273162685
0.006433091245102026
0.01631950571974124
0.009877430543265484
0.1805521623811987
0.0923877581765992
0.45272949963435577
0.496496237561603
0.40932651362873
0.6022869503054306
0.3202349413088709
0.42785945107898493
0.236088870272158
0.2584762092426572
0.23318962180487016
0.24382309622760628
0.09023727369594627
0.15760357992006127
0.054631488466711
0.08633424463644165
0.034582766774539864
0.02950138825163473
0.14979497461531563
0.11144355909979532
0.1819855054022087
0.1723004223982694
0.08413185153658395
0.0981735318946726
0.009067285798050453
0.017121420918943486
0.001674661002830254
0.002773462822169559
0.001125124796261022
0.001496614596631289
0.0010905062206447431
0.0011902497819164162
0.0010446541926158455
0.0011270217993208148
0.05960109444095077
0.02390824692426599
0.18673282587907494
0.08159254816762507
0.4408217120172491
0.3175921014860334
0.7094150309716611
0.6612438440868276
0.7745074318501721
0.7147075503560337
0.7396173706864428
0.7257356366193182
0.5785320049474971
0.6067476498129933
0.45366058430802164
0.49939497621241935
0.26768782098370636
0.3519161542624299
0.14615585277221266
0.29623550066640864
0.02724471190677747
0.10282178063108928
0.003733056981871115
0.013541943641198418
0.0038365363230655823
0.004291174662836466
0.01165495338426794
0.009986374182572515
0.02442602140239488
0.019756087316839206
0.09962783659631838
0.06384657221683095
0.08013788016206094
0.07940289234036924
0.04422671260759057
0.040879992631213495
0.011922799661354632
0.013513011167812786
0.010249423630443524
0.01222537529478783
0.003808913559346731
0.0057820657039205
0.013141218896785854
0.008452757989962912
0.11953442200086098
0.027548850217463224
0.4108502729154059
0.13703720838288588
0.4775401753521465
0.48904036527880107
0.28933624034167515
0.3942027110188711
0.21720737764914752
0.3252699943231804
0.2810550931306943
0.23134942490596822
0.26026389638875064
0.26288363946897225
0.11806279753336621
0.12294154235948665
0.01571699222252087
0.02847175405555058
0.0023080736471345767
0.0020906984174517444
0.014092011368474835
0.004583171383177351
0.1895836081544563
0.08450980132683121
0.7501709313911311
0.697154740077191
0.6918095329279436
0.7842325536449466
0.36300418045340854
0.535990852494658
0.15895266779215014
0.09561797851343175
0.2853502012449183
0.2354332948770265
0.13107615063813605
0.14543773380124175
0.07031005677886593
0.0697156140439062
0.030009059336133886
0.023129421662367866
0.07747876735701428
0.06338708602351584
0.05389406649179513
0.05813071980396197
0.04852942663047332
0.08519122644341423
0.011874641355572091
0.023142889045206165
0.005303062722741821
0.009827025152208922
0.0033419497793737256
0.0066759256462152125
0.0022739832203928115
0.00343920964134764
0.0012997155812015755
0.0014875721939535042
0.028190859131192413
0.028573208440047407
0.1041085764075863
0.04287025472989349
0.38870046708376677
0.25637872110022386
0.6751160280861525
0.5495061973495942
0.6566897499563844
0.6932050870865333
0.5213003778134524
0.557770126652918
0.35344123149901907
0.2972931664179299
0.32675234365927963
0.28035945626326053
0.5678599178676511
0.4953426728861952
0.46640820140268757
0.6006867881134234
0.17480754143152422
0.33653195474680797
0.009624625872049548
0.040586272465192856
0.0027328097893394437
0.002556147335201526
0.007904558528010322
0.0025276513228908283
0.055597245843832764
0.03500498961231188
0.07174161988528692
0.07275504169433736
0.01810360774670533
0.019148948762592488
0.010422794401159046
0.00960079968743962
0.006615661043040605
0.006525905558839348
0.01972329826325442
0.02385962746811034
0.012967046888755083
0.01993140718144864
0.015317266868157597
0.011450086247217089
0.021732722140217348
0.008314952009281864
0.17300887915272775
0.08514407137634558
0.2819900560937288
0.26350868334362704
0.3661018784417312
0.38532987500667065
0.26310708517055137
0.3637941918404381
0.3983311550339581
0.41404385773505836
0.2839392028464771
0.37712145368656524
0.09983347873401367
0.12435946148575704
0.004288523355964149
0.00540193899492128
0.0017107463955533335
0.0016121586396569436
0.00899086832893898
0.003844325547921147
0.31104834742188864
0.12212317832632819
0.7832698847924107
0.6900381206288418
0.6382527440205173
0.6969935908172883
0.28030011487818846
0.35010286325897005
0.09100484070320233
0.1127000394933312
0.1805337655797559
0.10061696582463374
0.0663537924783386
0.08124561635182588
0.022158864223719613
0.02620539180656281
0.0330714247215331
0.014017322118586278
0.0642878874053234
0.04345615983180916
0.13595608464752587
0.12210198495737752
0.07869102996074258
0.11639730156033137
0.033161794045303804
0.04587112430006462
0.024671490399530212
0.038114340257268425
0.010232828180879183
0.01348837668150224
0.0023010324139875163
0.004139067814902211
0.0011481231496672027
0.001176495936321438
0.009126192363501096
0.004326128829721384
0.06359544751599194
0.02001984675979877
0.2555405651311696
0.15304726806166127
0.5183295168844586
0.3925244743256102
0.5486644297037225
0.4491225170427131
0.3515150062321443
0.3209374800268718
0.16817235106732756
0.15410959736648544
0.2972441937413487
0.17837271116992157
0.5957725334960271
0.47802525949562225
0.6550203056278279
0.6924497139110587
0.29264895172537536
0.5444016304500792
0.015731580677218446
0.044985376583722
0.0015062648718167284
0.0018483231059564771
0.004156388326989315
0.0016417340828281074
0.030903596135931768
0.015550138614490859
0.04092355930229646
0.04366870983083085
0.01594134828492904
0.027196190026264545
0.005639959166413298
0.0051972640061836144
0.008244154752621514
0.004055715966409985
0.025889893456265273
0.01985897431950514
0.03852391632829264
0.044521189967947794
0.010317205716344358
0.02956812889537809
0.02091623829503541
0.015707089395040015
0.10637299276628318
0.05278402311268671
0.3050007524965129
0.19679406140367314
0.442970679894341
0.41148622861988104
0.500239477626273
0.5379609151867124
0.4986371076535651
0.6216944737354805
0.16808965061829678
0.2625582987431902
0.02187354122254406
0.05327419960325975
0.0015200294618864948
0.002142999883929477
0.0014522716618989033
0.001413665659973686
0.005108591381866526
0.0015654771105743132
0.26072683764918925
0.09832267506080467
0.7248993943917522
0.5025885441707109
0.5543855130948863
0.6553477704358325
0.10668434645942272
0.16082840673663162
0.035845432160137865
0.037996459118299186
0.03326624177232322
0.03140954759615202
0.0520223341031711
0.04282274383257478
0.011998715564652668
0.013453988188006093
0.007276983462951693
0.005186145932960629
0.026130179292616268
0.00917112126324843
0.11834046822882503
0.06950106273605014
0.10120285277838123
0.12277598129229825
0.06975323554025524
0.11676092082725904
0.015685891604696973
0.030290515371639414
0.005013713833625374
0.0050341256393528055
0.0016711153858841674
0.0016063346048065634
0.0010684140614030415
0.0010629155865033008
0.004636562663466921
0.0025493935398252835
0.018851467765457423
0.009430056784145744
0.1771707853114927
0.04806764722495888
0.375173394799534
0.30362209047530414
0.28499544023254925
0.3325507342017188
0.14096485263438896
0.17451561950942374
0.06611954700531761
0.05675574619903038
0.13405067666507606
0.06700958622290581
0.5476624889283761
0.4084670893000866
0.6725622057771404
0.6974270110729818
0.3761640641121878
0.5224483379770535
0.008067946159050383
0.05638546322494707
0.0011131850695603035
0.0010696108016307495
0.0015412953690937205
0.0011059767955362762
0.021648613047018234
0.005620730579072804
0.06925186269001948
0.08198926336717473
0.012219843383241637
0.015240377582556856
0.0017794690019413643
0.0022808692897021325
0.0023665350895856656
0.001716376151654337
0.030879120400887992
0.023123324995411865
0.14531611786625906
0.16439582825516422
0.07109180694981437
0.1342244312119337
0.045731592536656214
0.08237852401502233
0.07278352719685359
0.08835349704153797
0.2726535301968291
0.13832201278778516
0.38127045640043294
0.25662636078109685
0.6236838938533154
0.5066350406065409
0.580450081944177
0.6626736951714717
0.25905114834392656
0.4214842815344634
0.028367813102729202
0.08040309755300945
0.0012867014897476787
0.0016685257426135723
0.0010674083840512267
0.0011187619577798641
0.0017881679779941503
0.001176352940953882
0.14231929203370916
0.020087139774246466
0.47482672574092233
0.26602756868727945
0.5190001130706491
0.4392899179655743
0.09740486378706306
0.24159430341859334
0.03406465601721185
0.036404961238421955
0.038208529295365196
0.042217207632791305
0.008517635371352026
0.016988066600801828
0.0024189450298384794
0.0033695532346147868
0.0030346143884372296
0.001930866112499625
0.03693325077028308
0.008357314132802773
0.1268642766541787
0.05758789873621826
0.18571400697669047
0.14670752277300786
0.03109391935346577
0.05230664940115453
0.013994173299961103
0.008817050715162693