# vtk DataFile Version 1.0
Bar_TO_3D
ASCII
DATASET UNSTRUCTURED_GRID
POINTS 561 float 
-6.25 -11.25 0.0
-7.25 -11.25 0.0
-8.25 -11.25 0.0
-9.25 -11.25 0.0
-10.25 -11.25 0.0
-11.25 -11.25 0.0
-12.25 -11.25 0.0
-13.25 -11.25 0.0
-14.25 -11.25 0.0
-15.25 -11.25 0.0
-16.25 -11.25 0.0
-17.25 -11.25 0.0
-18.25 -11.25 0.0
-19.25 -11.25 0.0
-20.25 -11.25 0.0
-21.25 -11.25 0.0
-22.25 -11.25 0.0
-23.25 -11.25 0.0
-24.25 -11.25 0.0
-25.25 -11.25 0.0
-26.25 -11.25 0.0
-27.25 -11.25 0.0
-28.25 -11.25 0.0
-29.25 -11.25 0.0
-30.25 -11.25 0.0
-31.25 -11.25 0.0
-32.25 -11.25 0.0
-33.25 -11.25 0.0
-34.25 -11.25 0.0
-35.25 -11.25 0.0
-36.25 -11.25 0.0
-37.25 -11.25 0.0
-38.25 -11.25 0.0
-39.25 -11.25 0.0
-40.25 -11.25 0.0
-41.25 -11.25 0.0
-42.25 -11.25 0.0
-43.25 -11.25 0.0
-44.25 -11.25 0.0
-45.25 -11.25 0.0
-46.25 -11.25 0.0
-47.25 -11.25 0.0
-48.25 -11.25 0.0
-49.25 -11.25 0.0
-50.25 -11.25 0.0
-51.25 -11.25 0.0
-52.25 -11.25 0.0
-53.25 -11.25 0.0
-54.25 -11.25 0.0
-55.25 -11.25 0.0
-56.25 -11.25 0.0
-6.25 -12.25 0.0
-7.25 -12.25 0.0
-8.25 -12.25 0.0
-9.25 -12.25 0.0
-10.25 -12.25 0.0
-11.25 -12.25 0.0
-12.25 -12.25 0.0
-13.25 -12.25 0.0
-14.25 -12.25 0.0
-15.25 -12.25 0.0
-16.25 -12.25 0.0
-17.25 -12.25 0.0
-18.25 -12.25 0.0
-19.25 -12.25 0.0
-20.25 -12.25 0.0
-21.25 -12.25 0.0
-22.25 -12.25 0.0
-23.25 -12.25 0.0
-24.25 -12.25 0.0
-25.25 -12.25 0.0
-26.25 -12.25 0.0
-27.25 -12.25 0.0
-28.25 -12.25 0.0
-29.25 -12.25 0.0
-30.25 -12.25 0.0
-31.25 -12.25 0.0
-32.25 -12.25 0.0
-33.25 -12.25 0.0
-34.25 -12.25 0.0
-35.25 -12.25 0.0
-36.25 -12.25 0.0
-37.25 -12.25 0.0
-38.25 -12.25 0.0
-39.25 -12.25 0.0
-40.25 -12.25 0.0
-41.25 -12.25 0.0
-42.25 -12.25 0.0
-43.25 -12.25 0.0
-44.25 -12.25 0.0
-45.25 -12.25 0.0
-46.25 -12.25 0.0
-47.25 -12.25 0.0
-48.25 -12.25 0.0
-49.25 -12.25 0.0
-50.25 -12.25 0.0
-51.25 -12.25 0.0
-52.25 -12.25 0.0
-53.25 -12.25 0.0
-54.25 -12.25 0.0
-55.25 -12.25 0.0
-56.25 -12.25 0.0
-6.25 -13.25 0.0
-7.25 -13.25 0.0
-8.25 -13.25 0.0
-9.25 -13.25 0.0
-10.25 -13.25 0.0
-11.25 -13.25 0.0
-12.25 -13.25 0.0
-13.25 -13.25 0.0
-14.25 -13.25 0.0
-15.25 -13.25 0.0
-16.25 -13.25 0.0
-17.25 -13.25 0.0
-18.25 -13.25 0.0
-19.25 -13.25 0.0
-20.25 -13.25 0.0
-21.25 -13.25 0.0
-22.25 -13.25 0.0
-23.25 -13.25 0.0
-24.25 -13.25 0.0
-25.25 -13.25 0.0
-26.25 -13.25 0.0
-27.25 -13.25 0.0
-28.25 -13.25 0.0
-29.25 -13.25 0.0
-30.25 -13.25 0.0
-31.25 -13.25 0.0
-32.25 -13.25 0.0
-33.25 -13.25 0.0
-34.25 -13.25 0.0
-35.25 -13.25 0.0
-36.25 -13.25 0.0
-37.25 -13.25 0.0
-38.25 -13.25 0.0
-39.25 -13.25 0.0
-40.25 -13.25 0.0
-41.25 -13.25 0.0
-42.25 -13.25 0.0
-43.25 -13.25 0.0
-44.25 -13.25 0.0
-45.25 -13.25 0.0
-46.25 -13.25 0.0
-47.25 -13.25 0.0
-48.25 -13.25 0.0
-49.25 -13.25 0.0
-50.25 -13.25 0.0
-51.25 -13.25 0.0
-52.25 -13.25 0.0
-53.25 -13.25 0.0
-54.25 -13.25 0.0
-55.25 -13.25 0.0
-56.25 -13.25 0.0
-6.25 -14.25 0.0
-7.25 -14.25 0.0
-8.25 -14.25 0.0
-9.25 -14.25 0.0
-10.25 -14.25 0.0
-11.25 -14.25 0.0
-12.25 -14.25 0.0
-13.25 -14.25 0.0
-14.25 -14.25 0.0
-15.25 -14.25 0.0
-16.25 -14.25 0.0
-17.25 -14.25 0.0
-18.25 -14.25 0.0
-19.25 -14.25 0.0
-20.25 -14.25 0.0
-21.25 -14.25 0.0
-22.25 -14.25 0.0
-23.25 -14.25 0.0
-24.25 -14.25 0.0
-25.25 -14.25 0.0
-26.25 -14.25 0.0
-27.25 -14.25 0.0
-28.25 -14.25 0.0
-29.25 -14.25 0.0
-30.25 -14.25 0.0
-31.25 -14.25 0.0
-32.25 -14.25 0.0
-33.25 -14.25 0.0
-34.25 -14.25 0.0
-35.25 -14.25 0.0
-36.25 -14.25 0.0
-37.25 -14.25 0.0
-38.25 -14.25 0.0
-39.25 -14.25 0.0
-40.25 -14.25 0.0
-41.25 -14.25 0.0
-42.25 -14.25 0.0
-43.25 -14.25 0.0
-44.25 -14.25 0.0
-45.25 -14.25 0.0
-46.25 -14.25 0.0
-47.25 -14.25 0.0
-48.25 -14.25 0.0
-49.25 -14.25 0.0
-50.25 -14.25 0.0
-51.25 -14.25 0.0
-52.25 -14.25 0.0
-53.25 -14.25 0.0
-54.25 -14.25 0.0
-55.25 -14.25 0.0
-56.25 -14.25 0.0
-6.25 -15.25 0.0
-7.25 -15.25 0.0
-8.25 -15.25 0.0
-9.25 -15.25 0.0
-10.25 -15.25 0.0
-11.25 -15.25 0.0
-12.25 -15.25 0.0
-13.25 -15.25 0.0
-14.25 -15.25 0.0
-15.25 -15.25 0.0
-16.25 -15.25 0.0
-17.25 -15.25 0.0
-18.25 -15.25 0.0
-19.25 -15.25 0.0
-20.25 -15.25 0.0
-21.25 -15.25 0.0
-22.25 -15.25 0.0
-23.25 -15.25 0.0
-24.25 -15.25 0.0
-25.25 -15.25 0.0
-26.25 -15.25 0.0
-27.25 -15.25 0.0
-28.25 -15.25 0.0
-29.25 -15.25 0.0
-30.25 -15.25 0.0
-31.25 -15.25 0.0
-32.25 -15.25 0.0
-33.25 -15.25 0.0
-34.25 -15.25 0.0
-35.25 -15.25 0.0
-36.25 -15.25 0.0
-37.25 -15.25 0.0
-38.25 -15.25 0.0
-39.25 -15.25 0.0
-40.25 -15.25 0.0
-41.25 -15.25 0.0
-42.25 -15.25 0.0
-43.25 -15.25 0.0
-44.25 -15.25 0.0
-45.25 -15.25 0.0
-46.25 -15.25 0.0
-47.25 -15.25 0.0
-48.25 -15.25 0.0
-49.25 -15.25 0.0
-50.25 -15.25 0.0
-51.25 -15.25 0.0
-52.25 -15.25 0.0
-53.25 -15.25 0.0
-54.25 -15.25 0.0
-55.25 -15.25 0.0
-56.25 -15.25 0.0
-6.25 -16.25 0.0
-7.25 -16.25 0.0
-8.25 -16.25 0.0
-9.25 -16.25 0.0
-10.25 -16.25 0.0
-11.25 -16.25 0.0
-12.25 -16.25 0.0
-13.25 -16.25 0.0
-14.25 -16.25 0.0
-15.25 -16.25 0.0
-16.25 -16.25 0.0
-17.25 -16.25 0.0
-18.25 -16.25 0.0
-19.25 -16.25 0.0
-20.25 -16.25 0.0
-21.25 -16.25 0.0
-22.25 -16.25 0.0
-23.25 -16.25 0.0
-24.25 -16.25 0.0
-25.25 -16.25 0.0
-26.25 -16.25 0.0
-27.25 -16.25 0.0
-28.25 -16.25 0.0
-29.25 -16.25 0.0
-30.25 -16.25 0.0
-31.25 -16.25 0.0
-32.25 -16.25 0.0
-33.25 -16.25 0.0
-34.25 -16.25 0.0
-35.25 -16.25 0.0
-36.25 -16.25 0.0
-37.25 -16.25 0.0
-38.25 -16.25 0.0
-39.25 -16.25 0.0
-40.25 -16.25 0.0
-41.25 -16.25 0.0
-42.25 -16.25 0.0
-43.25 -16.25 0.0
-44.25 -16.25 0.0
-45.25 -16.25 0.0
-46.25 -16.25 0.0
-47.25 -16.25 0.0
-48.25 -16.25 0.0
-49.25 -16.25 0.0
-50.25 -16.25 0.0
-51.25 -16.25 0.0
-52.25 -16.25 0.0
-53.25 -16.25 0.0
-54.25 -16.25 0.0
-55.25 -16.25 0.0
-56.25 -16.25 0.0
-6.25 -17.25 0.0
-7.25 -17.25 0.0
-8.25 -17.25 0.0
-9.25 -17.25 0.0
-10.25 -17.25 0.0
-11.25 -17.25 0.0
-12.25 -17.25 0.0
-13.25 -17.25 0.0
-14.25 -17.25 0.0
-15.25 -17.25 0.0
-16.25 -17.25 0.0
-17.25 -17.25 0.0
-18.25 -17.25 0.0
-19.25 -17.25 0.0
-20.25 -17.25 0.0
-21.25 -17.25 0.0
-22.25 -17.25 0.0
-23.25 -17.25 0.0
-24.25 -17.25 0.0
-25.25 -17.25 0.0
-26.25 -17.25 0.0
-27.25 -17.25 0.0
-28.25 -17.25 0.0
-29.25 -17.25 0.0
-30.25 -17.25 0.0
-31.25 -17.25 0.0
-32.25 -17.25 0.0
-33.25 -17.25 0.0
-34.25 -17.25 0.0
-35.25 -17.25 0.0
-36.25 -17.25 0.0
-37.25 -17.25 0.0
-38.25 -17.25 0.0
-39.25 -17.25 0.0
-40.25 -17.25 0.0
-41.25 -17.25 0.0
-42.25 -17.25 0.0
-43.25 -17.25 0.0
-44.25 -17.25 0.0
-45.25 -17.25 0.0
-46.25 -17.25 0.0
-47.25 -17.25 0.0
-48.25 -17.25 0.0
-49.25 -17.25 0.0
-50.25 -17.25 0.0
-51.25 -17.25 0.0
-52.25 -17.25 0.0
-53.25 -17.25 0.0
-54.25 -17.25 0.0
-55.25 -17.25 0.0
-56.25 -17.25 0.0
-6.25 -18.25 0.0
-7.25 -18.25 0.0
-8.25 -18.25 0.0
-9.25 -18.25 0.0
-10.25 -18.25 0.0
-11.25 -18.25 0.0
-12.25 -18.25 0.0
-13.25 -18.25 0.0
-14.25 -18.25 0.0
-15.25 -18.25 0.0
-16.25 -18.25 0.0
-17.25 -18.25 0.0
-18.25 -18.25 0.0
-19.25 -18.25 0.0
-20.25 -18.25 0.0
-21.25 -18.25 0.0
-22.25 -18.25 0.0
-23.25 -18.25 0.0
-24.25 -18.25 0.0
-25.25 -18.25 0.0
-26.25 -18.25 0.0
-27.25 -18.25 0.0
-28.25 -18.25 0.0
-29.25 -18.25 0.0
-30.25 -18.25 0.0
-31.25 -18.25 0.0
-32.25 -18.25 0.0
-33.25 -18.25 0.0
-34.25 -18.25 0.0
-35.25 -18.25 0.0
-36.25 -18.25 0.0
-37.25 -18.25 0.0
-38.25 -18.25 0.0
-39.25 -18.25 0.0
-40.25 -18.25 0.0
-41.25 -18.25 0.0
-42.25 -18.25 0.0
-43.25 -18.25 0.0
-44.25 -18.25 0.0
-45.25 -18.25 0.0
-46.25 -18.25 0.0
-47.25 -18.25 0.0
-48.25 -18.25 0.0
-49.25 -18.25 0.0
-50.25 -18.25 0.0
-51.25 -18.25 0.0
-52.25 -18.25 0.0
-53.25 -18.25 0.0
-54.25 -18.25 0.0
-55.25 -18.25 0.0
-56.25 -18.25 0.0
-6.25 -19.25 0.0
-7.25 -19.25 0.0
-8.25 -19.25 0.0
-9.25 -19.25 0.0
-10.25 -19.25 0.0
-11.25 -19.25 0.0
-12.25 -19.25 0.0
-13.25 -19.25 0.0
-14.25 -19.25 0.0
-15.25 -19.25 0.0
-16.25 -19.25 0.0
-17.25 -19.25 0.0
-18.25 -19.25 0.0
-19.25 -19.25 0.0
-20.25 -19.25 0.0
-21.25 -19.25 0.0
-22.25 -19.25 0.0
-23.25 -19.25 0.0
-24.25 -19.25 0.0
-25.25 -19.25 0.0
-26.25 -19.25 0.0
-27.25 -19.25 0.0
-28.25 -19.25 0.0
-29.25 -19.25 0.0
-30.25 -19.25 0.0
-31.25 -19.25 0.0
-32.25 -19.25 0.0
-33.25 -19.25 0.0
-34.25 -19.25 0.0
-35.25 -19.25 0.0
-36.25 -19.25 0.0
-37.25 -19.25 0.0
-38.25 -19.25 0.0
-39.25 -19.25 0.0
-40.25 -19.25 0.0
-41.25 -19.25 0.0
-42.25 -19.25 0.0
-43.25 -19.25 0.0
-44.25 -19.25 0.0
-45.25 -19.25 0.0
-46.25 -19.25 0.0
-47.25 -19.25 0.0
-48.25 -19.25 0.0
-49.25 -19.25 0.0
-50.25 -19.25 0.0
-51.25 -19.25 0.0
-52.25 -19.25 0.0
-53.25 -19.25 0.0
-54.25 -19.25 0.0
-55.25 -19.25 0.0
-56.25 -19.25 0.0
-6.25 -20.25 0.0
-7.25 -20.25 0.0
-8.25 -20.25 0.0
-9.25 -20.25 0.0
-10.25 -20.25 0.0
-11.25 -20.25 0.0
-12.25 -20.25 0.0
-13.25 -20.25 0.0
-14.25 -20.25 0.0
-15.25 -20.25 0.0
-16.25 -20.25 0.0
-17.25 -20.25 0.0
-18.25 -20.25 0.0
-19.25 -20.25 0.0
-20.25 -20.25 0.0
-21.25 -20.25 0.0
-22.25 -20.25 0.0
-23.25 -20.25 0.0
-24.25 -20.25 0.0
-25.25 -20.25 0.0
-26.25 -20.25 0.0
-27.25 -20.25 0.0
-28.25 -20.25 0.0
-29.25 -20.25 0.0
-30.25 -20.25 0.0
-31.25 -20.25 0.0
-32.25 -20.25 0.0
-33.25 -20.25 0.0
-34.25 -20.25 0.0
-35.25 -20.25 0.0
-36.25 -20.25 0.0
-37.25 -20.25 0.0
-38.25 -20.25 0.0
-39.25 -20.25 0.0
-40.25 -20.25 0.0
-41.25 -20.25 0.0
-42.25 -20.25 0.0
-43.25 -20.25 0.0
-44.25 -20.25 0.0
-45.25 -20.25 0.0
-46.25 -20.25 0.0
-47.25 -20.25 0.0
-48.25 -20.25 0.0
-49.25 -20.25 0.0
-50.25 -20.25 0.0
-51.25 -20.25 0.0
-52.25 -20.25 0.0
-53.25 -20.25 0.0
-54.25 -20.25 0.0
-55.25 -20.25 0.0
-56.25 -20.25 0.0
-6.25 -21.25 0.0
-7.25 -21.25 0.0
-8.25 -21.25 0.0
-9.25 -21.25 0.0
-10.25 -21.25 0.0
-11.25 -21.25 0.0
-12.25 -21.25 0.0
-13.25 -21.25 0.0
-14.25 -21.25 0.0
-15.25 -21.25 0.0
-16.25 -21.25 0.0
-17.25 -21.25 0.0
-18.25 -21.25 0.0
-19.25 -21.25 0.0
-20.25 -21.25 0.0
-21.25 -21.25 0.0
-22.25 -21.25 0.0
-23.25 -21.25 0.0
-24.25 -21.25 0.0
-25.25 -21.25 0.0
-26.25 -21.25 0.0
-27.25 -21.25 0.0
-28.25 -21.25 0.0
-29.25 -21.25 0.0
-30.25 -21.25 0.0
-31.25 -21.25 0.0
-32.25 -21.25 0.0
-33.25 -21.25 0.0
-34.25 -21.25 0.0
-35.25 -21.25 0.0
-36.25 -21.25 0.0
-37.25 -21.25 0.0
-38.25 -21.25 0.0
-39.25 -21.25 0.0
-40.25 -21.25 0.0
-41.25 -21.25 0.0
-42.25 -21.25 0.0
-43.25 -21.25 0.0
-44.25 -21.25 0.0
-45.25 -21.25 0.0
-46.25 -21.25 0.0
-47.25 -21.25 0.0
-48.25 -21.25 0.0
[...]
CELL_DATA 1000 
FIELD FieldData  2
density 1 1000 float
0.1327869209831934
0.06944667893330761
0.3862145055086936
0.40633488185577205
0.37511901219651556
0.5105245800888907
0.29548184160528035
0.5313101837247795
0.01195464892041671
0.057438952228387664
0.003519737315871536
0.0053558235886444865
0.004897222416500114
0.003040092796022266
0.09792990663176634
0.04269345667252936
0.5202602664082533
0.3220094879864842
0.7082904539218136
0.6211578819349827
0.8209191146462945
0.7538573488358926
0.7540747300969801
0.7203873212357148
0.7421830177334305
0.5962058003076482
0.4419046921928191
0.3502265870224402
0.20140751474892007
0.24010465580867751
0.04184396161553349
0.13222159567021452
0.026240988342201118
0.05641572709977198
0.015404105964558018
0.014261366250129102
0.07510126917066932
0.04727163746071513
0.13288435657343703
0.15727154220782438
0.3180004419911923
0.36165312235081476
0.2745349905962843
0.3102761191266818
0.395410966873822
0.4113307327637284
0.5938225460610345
0.49471272495272123
0.7707262563917462
0.6339517569082181
0.8520995585618628
0.739078383618184
0.6383629472385219
0.5980350698834253
0.12517447819779035
0.21800253775100695
0.0011856959435346097
0.0026976126213556022
0.0010022921128093356
0.0010057014106797644
0.0010035612712529928
0.0010014766066307659
0.0019137807014882506
0.0012571083544555101
0.020983830275974263
0.026335128930565166
0.21668853642960184
0.20742899334886067
0.5129808014908287
0.5047648852816476
0.8339476650455029
0.7696046311434107
0.8435641002116019
0.8765968132305758
0.8400651500432896
0.8742905545458992
0.6383530216233089
0.7726354782059108
0.7817216457029361
0.7494020223027436
0.8067724128596225
0.8426811803553982
0.8310637523296986
0.817081522819667
0.7282163447143344
0.7758742993617892
0.27129311423081387
0.3194704643242807
0.062472228340496566
0.08680487272496495
0.001696822334988803
0.004124929572871353
0.0013225284905544104
0.0020803364671441943
0.0021321944502467717
0.002789699558871172
0.024573852265040576
0.047970077652388025
0.058680274209778324
0.11148097507336167
0.13538609080197744
0.13095773875512717
0.47894133797889726
0.4107947852978505
0.6272349268714236
0.6887418080302844
0.5266715177430144
0.6537307209803185
0.10019075461097687
0.2839560868521672
0.00831546806460344
0.023751458988114177
0.015099265973490969
0.00923839680958034
0.10312386539467668
0.08480706373417808
0.39607827292884945
0.2798732613801729
0.5693897269628119
0.5817289245702749
0.6411496400000852
0.5604617159848279
0.43160000517008906
0.4482420146599117
0.2772220890466152
0.258689589218973
0.11883071112332454
0.13156681189097205
0.1360189772728781
0.08305541795235823
0.09779623801758432
0.11589474775777295
0.09366347047611417
0.1384414494171555
0.07171467981310348
0.12974758670535042
0.2856682794386363
0.31179749663813355
0.3367033614337016
0.40072116980462924
0.47500904913458913
0.5423188059343742
0.4110615841444482
0.5169932150793941
0.43283498774656465
0.48164779109740735
0.411758353698171
0.35386291759324245
0.45380481670103306
0.37696241878790787
0.494139372178794
0.3327405244285061
0.2686258210017314
0.22145009667414695
0.03212484942092392
0.059216465090833476
0.001086552268521386
0.0020266852099259437
0.0010029089773908467
0.001009292173312793
0.0010153897204309417
0.0010073212621566417
0.004155923223272318
0.0017248283012305417
0.08183991552164022
0.05632515998283312
0.3471124651480125
0.3399701940811799
0.5842912710708823
0.43639582539592475
0.762530336086636
0.6583426983817561
0.8552405555911122
0.8235579194167789
0.8729793745498281
0.8773806640359807
0.8459695141583145
0.8520940260998412
0.8412990418400993
0.8290239625116095
0.8145801512364422
0.8229768833101047
0.7737012731773377
0.8140869963247224
0.5424930697601108
0.6126088467277205
0.12929851067599085
0.18126001069273065
0.020444566869607647
0.03817451111611948
0.007207176741649098
0.009840601690372857
0.02589675737772958
0.03845553324208744
0.05005505185356127
0.04067313334011778
0.218861170341728
0.20979555572550018
0.22704177657070812
0.23814673581450535
0.2756817635702873
0.2510480983183961
0.6876575271640576
0.6209010202189913
0.8206967597200068
0.8495154789994431
0.717354268107222
0.8317562122421476
0.3341739902452983
0.565990393439327
0.02822892280063289
0.08625145904990468
0.03198873171232128
0.02259867434296544
0.15850356984169686
0.11609644599567756
0.4403512703736332
0.3609319407724593
0.5896012308595092
0.6217974953693355
0.4947898019512099
0.5023619610599774
0.324248504964854
0.374009178248613
0.110046305092906
0.08772422156159718
0.04696508853162025
0.03445798031106778
0.06706899541836259
0.03640708973377661
0.1420811231690914
0.15793400477849628
0.23524818803823308
0.27984912389817057
0.32925153316883565
0.41948236864826516
0.5296035482850505
0.551710506106124
0.6780545950661176
0.701334679840038
0.7863094340907835
0.8210874900949866
0.6664247076295371
0.7518986039673052
0.40826023383106824
0.5360800840701005
0.2436184441876236
0.2951801706615888
0.10766324469453195
0.07673095797037756
0.07774849673859449
0.028765995120735778
0.10664871832694316
0.06533508920937102
0.027411368935914327
0.0503371236069818
0.0015320706272909808
0.004833452433843964
0.0010245192761498341
0.0012091473185627125
0.001124489400949186
0.0010938237802188267
0.021554803677948303
0.011493969655925546
0.2489479727726929
0.20484526160176816
0.389765814618724
0.42002186888995974
0.35304194969986785
0.2925475644449665
0.628754798841867
0.43959642084817047
0.852309462378613
0.7044650709471703
0.8543602948557909
0.8365677833093462
0.7986774880200395
0.7583811920640849
0.7309459412332459
0.6805158344599389
0.7945216572940522
0.6840430518354352
0.6648062234943989
0.634400381054579
0.3734962163739637
0.42699617454665983
0.07846428372781211
0.1643512554538065
0.02277081845310493
0.03464348908096374
0.021284319937549055
0.025589492145144027
0.049725779494313754
0.03597104823640579
0.14195284295780655
0.09441510131210085
0.2869475146552305
0.23656124098944134
0.2976466188394925
0.21940874528584803
0.48984975899497
0.3908711771334584
0.7917775183992336
0.7467968401990969
0.8809076673515042
0.8600308675444657
0.8510989942465538
0.8738029596542802
0.40718752993093327
0.572673926841562
0.07021374437230357
0.12115203407431033
0.05946451222419485
0.061865645005076866
0.3022516483573122
0.22603188447078948
0.5012316646866946
0.5381983392500006
0.637811697786201
0.6816828398578301
0.5191122864668146
0.5699812144495153
0.2329947695938917
0.3018040545025047
0.028338250679638185
0.06691802406663773
0.010591566648833123
0.016218412110702633
0.03987245693397342
0.011829260386331274
0.2453246804572541
0.14321890479541327
0.5096449388901442
0.4060815778615717
0.6523180911280981
0.7211485146843223
0.7676870242468914
0.7702113180667485
0.8195887110487137
0.8272616992148508
0.8193667820360462
0.8072854164199645
0.7624261442598756
0.810627953277446
0.565941015711952
0.6471148123200477
0.15481202006361663
0.20777088288874834
0.014114639360075086
0.018566285855736567
0.005522049290649751
0.004838890503235932
0.022444230458932714
0.011145975613721583
0.04779313053279747
0.08699305609348189
0.03116295257946604
0.10930063938065414
0.008528948623123787
0.061764645760087035
0.005559672975818763
0.028594583629804892
0.12369307854984227
0.07778919161553681
0.2840219196461394
0.30865806342548907
0.31143125575826985
0.3044461227696519
0.13042815562665336
0.11172844786613154
0.2431666635656622
0.0911182796680723
0.5222904854391124
0.2339462020954455
0.7012121360490449
0.5839126396008005
0.505498965265991
0.4156865762148602
0.32250106004021184
0.21183338375864377
0.253858143341988
0.08434139158738171
0.2717260568197392
0.14333488522954416
0.29680114300057603
0.24123814478712854
0.07011247541052676
0.10207098377834131
0.030098628163593686
0.037469664874866616
0.022187850835520138
0.025894099144789906
0.06590129401293666
0.057911037755114705
0.1430250890284497
0.09328720721408955
0.19340415247068005
0.0939347067381637
0.20043346390989938
0.10848607086618105
0.6373874478077979
0.538843505258222
0.822365840544391
0.7990193408755641
0.8727317915922572
0.8450049119076447
0.7966659236344829
0.808029988547265
0.34973140465460634
0.4602720603934453
0.0881959805093472
0.10645938393636359
0.07834498538129624
0.05402838989545691
0.3202508399779805
0.1729773016373834
0.5469793458540281
0.4692722948108123
0.6070116947611246
0.5303823126805788
0.4362387972495899
0.42862049963633675
0.20406473412613788
0.15164648926007682
0.028826195954350688
0.030383541580815007
0.006394367035464734
0.005570438058677581
0.031497824601040905
0.012146745419577856
0.2140601035130737
0.15824809770579598
0.60496869621244
0.4985991703817379
0.7071219859699345
0.6742462331922291
0.7557786497031939
0.6691411239061966
0.6982278868604886
0.6726038042835031
0.7436117551809411
0.5907097652090855
0.7177789186407729
0.6141102390978492
0.5142058652059792
0.5454954897070683
0.09736698736999863
0.28169135252379024
0.00864684903612014
0.015879888307369697
0.003713792266284017
0.004606191247699575
0.054743894753589366
0.047782361368502474
0.3766946358207579
0.41634977994766803
0.4924065066919582
0.6418657743698664
0.29387949682227554
0.4910347362137575
0.14983758200936587
0.28049061918845897
0.26426867747092486
0.24271886482848076
0.37858644719549484
0.35300766497287056
0.17863973198476352
0.2003662488946778
0.02084076076634538
0.025803020326194533
0.057826098072932694
0.01746105870590813
0.18012399847105232
0.052219080170139216
0.3573352485934678
0.2819774058076872
0.0927588929716265
0.09792733557911405
0.01065590779749383
0.00876980951103607
0.0071923023963426525
0.002002293944882519
0.04357472980205811
0.006977234477153283
0.09997890006510704
0.04821645881057596
0.14116502054036853
0.16205994274874674
0.06788808565866292
0.15678348687614876
0.018562529359009653
0.027558279854066108
0.02117233092314054
0.026367544219052165
0.02912150932657581
0.022254262391694098
0.07075390557262838
0.06371617531294008
0.08424424582703942
0.058272773100020284
0.5967164902347047
0.4871536263672174
0.7314476353023709
0.6534569173567777
0.7597398352045449
0.7421776078574273
0.5823619831860715
0.6446147409422192
0.18504728277608146
0.28396486373994395
0.036668298804411935
0.047699686539284004
0.03961191501018943
0.021507606141960983
0.18702330063158978
0.07702100884730423
0.39792402401852117
0.29741054385659454
0.3735460667559973
0.26602425047323564
0.152505242710919
0.16929381355925474
0.043943371371363366
0.03884400519184094
0.005032356953447484
0.00847226143937484
0.00393533686633502
0.00359427250949358
0.029422445797384924
0.013434363330498605
0.31870124020688145
0.21090182212465172
0.6218365827267764
0.5741943156805756
0.6459836567318045
0.6312900983268597
0.5895145275233326
0.5095890253374077
0.2746349214438991
0.1794904427381083
0.2533992321480675
0.10691836897007397
0.354960044777899
0.2261519214276319
0.47056080203557454
0.420711192800801
0.22897316495423967
0.35802087028530416
0.025173555114708767
0.07705114848546063
0.034559760597161704
0.04903843774281552
0.29940312796364965
0.22572030681754837
0.6899188195353432
0.6421652112912075
0.8332943759655351
0.8545418790404387
0.5992102013183909
0.760402339504301
0.29300941452121726
0.3640828812526516
0.18801232515360233
0.15576550823095497
0.2226553120184266
0.19115192972051123
0.06356936363181313
0.07698428787590612
0.008404075553629167
0.011432301428057942
0.003609242133598503
0.002380032950551764
0.015357218931345125
0.004723539747715904
0.11664013614524903
0.05376735095797208
0.028241449204943193
0.05549530818154771
0.0015684344572847143
0.0029761383569678087
0.0012138131148730768
0.0011979193395999495
0.002398324787173039
0.0017202349632198743
0.056021534970430144
0.020115368608420836
0.2660584839174931
0.18669294197350977
0.2117614306948751
0.31096127290919534
0.06941274248987792
0.13721082717396724
0.028086732632495216
0.06173928110557763
0.06468414859141472
0.06304022807488369
0.13074435005305288
0.19430882182727954
0.10551211500276873
0.17342036770678856
0.5740592591209774
0.6004991050459443
0.7071013945322198
0.6945947050100996
0.7568992556262306
0.8113839994533011
0.6238510146450795
0.7284264549880045
0.236355877749475
0.4382048052544112
0.022895708298059883
0.05819910047745131
0.011096498752997213
0.011770711885150484
0.05800638761092662
0.022852999893975087
0.10960438511041366
0.0474588911825034
0.07738214340696968
0.047704447512168596
0.03298039907163697
0.03540856105256676
0.012911682612453523
0.018610508198876444
0.006479118881413917
0.009171058276738506
0.011773178436445101
0.008387802927074835
0.058208114263476676
0.05241589151530484
0.38050130454583425
0.3190366775721289
0.5726077667644444
0.6047373780522051
0.5183466535296047
0.4997353380408368
0.07290498092197291
0.10880179238677433
0.011446023919143445
0.004267779336147663
0.01653342489163106
0.00331029135533662
0.15823936986624643
0.027142118047184083
0.3458330569693792
0.3315856349178235
0.30703936980927454
0.43186312025945933
0.21922855946554973
0.3260886236857407
0.3025530004581238
0.3394201727063488
0.5779393954514835
0.5191228538733633
0.8205562078481942
0.7829356644009949
0.7611831052453389
0.7221748229842375
0.42840672254274825
0.3867826248596317
0.08189663735359928
0.07659180002259615
0.09642785678826879
0.04408486930378918
0.15596629874913567
0.11591510694143849
0.039544367191792267
0.050804113674323456
0.002230194784321794
0.0043860158099762216
0.00115961038503681
0.001037113496516886
0.0029324205396618623
0.0013517015790272032
0.025680753591805036
0.005853934026009723
0.02674456831812227
0.032772749434194795
0.0028084184485652882
0.006334471181652354
0.0019446571870496924
0.0021366556429112406
0.0026740616909885695
0.002326514825447878
0.04672729727140129
0.02129210089331203
0.3289081385469547
0.2843814107341775
0.5033429112579993
0.5320116696574069
0.22710140440818327
0.29738654010335397
0.096384164880744
0.1172136087408361
0.07578128821083105
0.07991930613427152
0.14957422054350047
0.15295154902855768
0.23950924736796572
0.3314984932046024
0.6914823170166237
0.7329356535967961
0.8532709947296577
0.8548664741932865
0.8728683350169902
0.9084949722826379
0.7976955371834155
0.881976037832054
0.3898964466392626
0.6725381882505641
0.03680769563619175
0.11904612065812321
0.010048597051915076
0.01849665453593351
0.009206650459718677
0.00615431798257352
0.025248347695651003
0.008410548269454761
0.03243752105322383
0.021692897803681326
0.03620382867133335
0.044638654829040156
0.028097120365903592
0.06256575367728041
0.013646273303318062
0.043045345218080545
0.04834467941274649
0.05188603819087536
0.18836120686350544
0.16367356532836258
0.43862432230121656
0.3603946183096074
0.43434792144904505
0.43850300993225166
0.19663159133201624
0.176376215744194
0.004596221268270955
0.004747518305516489
0.0013826425168503562
0.0012261292234124685
0.0013761346647469435
0.0010974684059836144
0.06035849112100867
0.015425764575524546
0.40982108704663744
0.28258298407931337
0.4834014237723855
0.5555002585021922
0.2983976114093892
0.35235605730307196
0.41274093324422834
0.31916065515218767
0.5415293452926111
0.39558955484393615
0.6796335206999384
0.5369302583956067
0.4188306708745066
0.46965006346826343
0.10176090433158928
0.11455992201270722
0.01788580161266824
0.011766286435653542
0.020123256523164004
0.006885584747456117
0.0666895337234184
0.05657029936280237
0.018020514592430915
0.05233965281538354
0.0012714765833077375
0.003024276078006599
0.001008906773510992
0.001013098283865195
0.0011147728780748203
0.0010255615176249537
0.003826233796026151
0.0017672906684225958
0.009935258432373507
0.007222007822284744
0.005742740431115884
0.006398819700296213
0.002794131106283404
0.003934510396861723
0.006868134218744987
0.006079007920614669
0.06397668918440028
0.031423491321503946
0.3579386730210971
0.22603548476098692
0.410861904694876
0.3465537180439013
0.2333042758824888
0.20320959199599772
0.08802417261690336
0.05520502829218849
0.13088485356322577
0.068178000118017
0.24946722264301735
0.22293354499652362
0.4094462206531698
0.4379510061294978
0.9192152134928872
0.9463219864097187
0.9544365545051372
0.9594847364200734
0.9586961582431364
0.9698851372067606
0.9165172169918305
0.9533150663217036
0.6624191675036465
0.8389431926049886
0.08965318562443561
0.2982727433786376
0.00967152778276105
0.019321801708394835
0.0022068754950855893
0.0025069929964186112
0.003294389075240266
0.002074375828441136
0.017741456110596982
0.0067227815750512095
0.14499177293005558
0.1078713479710483
0.16781772086657168
0.2181067587929901
0.1466396463320044
0.23403791008136987
0.18252183007265466
0.2015140701962297
0.2536664527680914
0.2186944120128538
0.3208554506574328
0.27897488567764533
0.1473554725353444
0.10940856178097498
0.0119497287260126
0.017863705225820845
0.0010976952944991292
0.0011424629229129521
0.0010131347379338101
0.00103139723936928
0.0012680825713483827
0.001041201917323418
0.04976199649233687
0.012516828647365238
0.38808570417978827
0.23006063065348095
0.5151983292610106
0.5333688980088668
0.19290901223188806
0.21460272697784685
0.15134266072084177
0.0749751937332188
0.1791445909364098
0.10785409492990465
0.307121852662126
0.20559052918259124
0.20076197887216551
0.18749425533020844
0.021378786863058698
0.027891999340182945
0.004219607628392194
0.003334589858358928
0.007755622897800773
0.004512830871900536
0.07827683674870041
0.0499884734389924
0.021593309730548977
0.06372515277141245
0.0015614940786956738
0.0037643370320546697
0.0010313248265477334
0.0010672294053414245
0.0010512713785102744
0.0010293000231192766
0.0020429424263888403
0.001402902110295781
0.002835131283270077
0.002235046187715165
0.005327943552125804
0.0026137424763659494
0.0037129501014890984
0.0022736735001795453
0.017320578006446763
0.010017395102304046
0.048243911835838885
0.022712742377724356
0.19046173918511566
0.12416920759698878
0.16274468145231852
0.11653112287788338
0.04913033662112595
0.053443219511410046
0.01462610052871248
0.01061241994699703
0.03344159425484604
0.015500939977019523
0.214356090777766
0.09689397861278762
0.5114717151976549
0.5433467446942165
0.9800496902967692
0.9812469518397373
0.9819884225427365
0.983909606332322
0.9849489356650744
0.9888862655778838
0.9510667020830973
0.9758663197598948
0.7952774882438607
0.9050775825790209
0.1739432539218723
0.37090526400334534
0.006866814860843807
0.015409545945634377
0.0012869861932856223
0.0012464648047252275
0.0014338219289226687
0.0013057833514145772
0.03598194110070262
0.0073998141416320535
0.2961606950808842
0.19170213209329948
0.38873622238803285
0.3269517779369991
0.2730290428699645
0.41952013220137346
0.17186354066734588
0.24633944818072412
0.26186288263737023
0.2042016868315989
0.15329720373263098
0.1370043280579688
0.009475042951733865
0.008626780555567069
0.0013098274350200677
0.0012761774471937823
0.001039921511588726
0.0010166470371456911
0.0010234561995971392
0.0010284284613400804
0.0013071140565953196
0.0012071420078127082
0.043994681425004706
0.02018720203035036
0.4735159335998898
0.33592854613309076
0.3055516597677748
0.28679656510035934
0.03703218101138591
0.043891261755679443
0.004063591960674885
0.0023564146991251803
0.013988425806934247
0.002646172219887207
0.12473119544308625
0.04907346842969478
0.19898248517610329
0.28417266326929363
0.03060830816597943
0.14575369449628955
0.005566686779742229
0.008431343256978592
0.01125775390447441
0.003388116321024342
0.054416307500331475
0.021550495700508033
0.051757691324555384
0.10188736419249039
0.002448252734727956
0.019324395694153357
0.0010738899596010206
0.0013383835344128682
0.001182040484829809
0.001230346708505887
0.001331812343221339
0.0014827225705632183
0.0013226756135779306
0.00110521113801334
0.001226566214273096
0.0012725228895145379
0.0021091376689250756
0.0012203170048728919
0.015249330826692834
0.013061802026499335
0.0397107652265378
0.013397366983692267
0.037879247675261025
0.03991781050056625
0.015855426225135125
0.008987878880998161
0.0026014098346440187
0.0033140555418165133
0.00439669474094335
0.0014796164486070135
0.025780285203960016
0.0071456991063559025
0.3842378207120455
0.1925664061306763
0.7094111390823536