# vtk DataFile Version 1.0
Bar_TO_3D
ASCII
DATASET UNSTRUCTURED_GRID
POINTS 2121 float 
-6.25 -11.25 0.0
-6.75 -11.25 0.0
-7.25 -11.25 0.0
-7.75 -11.25 0.0
-8.25 -11.25 0.0
-8.75 -11.25 0.0
-9.25 -11.25 0.0
-9.75 -11.25 0.0
-10.25 -11.25 0.0
-10.75 -11.25 0.0
-11.25 -11.25 0.0
-11.75 -11.25 0.0
-12.25 -11.25 0.0
-12.75 -11.25 0.0
-13.25 -11.25 0.0
-13.75 -11.25 0.0
-14.25 -11.25 0.0
-14.75 -11.25 0.0
-15.25 -11.25 0.0
-15.75 -11.25 0.0
-16.25 -11.25 0.0
-16.75 -11.25 0.0
-17.25 -11.25 0.0
-17.75 -11.25 0.0
-18.25 -11.25 0.0
-18.75 -11.25 0.0
-19.25 -11.25 0.0
-19.75 -11.25 0.0
-20.25 -11.25 0.0
-20.75 -11.25 0.0
-21.25 -11.25 0.0
-21.75 -11.25 0.0
-22.25 -11.25 0.0
-22.75 -11.25 0.0
-23.25 -11.25 0.0
-23.75 -11.25 0.0
-24.25 -11.25 0.0
-24.75 -11.25 0.0
-25.25 -11.25 0.0
-25.75 -11.25 0.0
-26.25 -11.25 0.0
-26.75 -11.25 0.0
-27.25 -11.25 0.0
-27.75 -11.25 0.0
-28.25 -11.25 0.0
-28.75 -11.25 0.0
-29.25 -11.25 0.0
-29.75 -11.25 0.0
-30.25 -11.25 0.0
-30.75 -11.25 0.0
-31.25 -11.25 0.0
-31.75 -11.25 0.0
-32.25 -11.25 0.0
-32.75 -11.25 0.0
-33.25 -11.25 0.0
-33.75 -11.25 0.0
-34.25 -11.25 0.0
-34.75 -11.25 0.0
-35.25 -11.25 0.0
-35.75 -11.25 0.0
-36.25 -11.25 0.0
-36.75 -11.25 0.0
-37.25 -11.25 0.0
-37.75 -11.25 0.0
-38.25 -11.25 0.0
-38.75 -11.25 0.0
-39.25 -11.25 0.0
-39.75 -11.25 0.0
-40.25 -11.25 0.0
-40.75 -11.25 0.0
-41.25 -11.25 0.0
-41.75 -11.25 0.0
-42.25 -11.25 0.0
-42.75 -11.25 0.0
-43.25 -11.25 0.0
-43.75 -11.25 0.0
-44.25 -11.25 0.0
-44.75 -11.25 0.0
-45.25 -11.25 0.0
-45.75 -11.25 0.0
-46.25 -11.25 0.0
-46.75 -11.25 0.0
-47.25 -11.25 0.0
-47.75 -11.25 0.0
-48.25 -11.25 0.0
-48.75 -11.25 0.0
-49.25 -11.25 0.0
-49.75 -11.25 0.0
-50.25 -11.25 0.0
-50.75 -11.25 0.0
-51.25 -11.25 0.0
-51.75 -11.25 0.0
-52.25 -11.25 0.0
-52.75 -11.25 0.0
-53.25 -11.25 0.0
-53.75 -11.25 0.0
-54.25 -11.25 0.0
-54.75 -11.25 0.0
-55.25 -11.25 0.0
-55.75 -11.25 0.0
-56.25 -11.25 0.0
-6.25 -11.75 0.0
-6.75 -11.75 0.0
-7.25 -11.75 0.0
-7.75 -11.75 0.0
-8.25 -11.75 0.0
-8.75 -11.75 0.0
-9.25 -11.75 0.0
-9.75 -11.75 0.0
-10.25 -11.75 0.0
-10.75 -11.75 0.0
-11.25 -11.75 0.0
-11.75 -11.75 0.0
-12.25 -11.75 0.0
-12.75 -11.75 0.0
-13.25 -11.75 0.0
-13.75 -11.75 0.0
-14.25 -11.75 0.0
-14.75 -11.75 0.0
-15.25 -11.75 0.0
-15.75 -11.75 0.0
-16.25 -11.75 0.0
-16.75 -11.75 0.0
-17.25 -11.75 0.0
-17.75 -11.75 0.0
-18.25 -11.75 0.0
-18.75 -11.75 0.0
-19.25 -11.75 0.0
-19.75 -11.75 0.0
-20.25 -11.75 0.0
-20.75 -11.75 0.0
-21.25 -11.75 0.0
-21.75 -11.75 0.0
-22.25 -11.75 0.0
-22.75 -11.75 0.0
-23.25 -11.75 0.0
-23.75 -11.75 0.0
-24.25 -11.75 0.0
-24.75 -11.75 0.0
-25.25 -11.75 0.0
-25.75 -11.75 0.0
-26.25 -11.75 0.0
-26.75 -11.75 0.0
-27.25 -11.75 0.0
-27.75 -11.75 0.0
-28.25 -11.75 0.0
-28.75 -11.75 0.0
-29.25 -11.75 0.0
-29.75 -11.75 0.0
-30.25 -11.75 0.0
-30.75 -11.75 0.0
-31.25 -11.75 0.0
-31.75 -11.75 0.0
-32.25 -11.75 0.0
-32.75 -11.75 0.0
-33.25 -11.75 0.0
-33.75 -11.75 0.0
-34.25 -11.75 0.0
-34.75 -11.75 0.0
-35.25 -11.75 0.0
-35.75 -11.75 0.0
-36.25 -11.75 0.0
-36.75 -11.75 0.0
-37.25 -11.75 0.0
-37.75 -11.75 0.0
-38.25 -11.75 0.0
-38.75 -11.75 0.0
-39.25 -11.75 0.0
-39.75 -11.75 0.0
-40.25 -11.75 0.0
-40.75 -11.75 0.0
-41.25 -11.75 0.0
-41.75 -11.75 0.0
-42.25 -11.75 0.0
-42.75 -11.75 0.0
-43.25 -11.75 0.0
-43.75 -11.75 0.0
-44.25 -11.75 0.0
-44.75 -11.75 0.0
-45.25 -11.75 0.0
-45.75 -11.75 0.0
-46.25 -11.75 0.0
-46.75 -11.75 0.0
-47.25 -11.75 0.0
-47.75 -11.75 0.0
-48.25 -11.75 0.0
-48.75 -11.75 0.0
-49.25 -11.75 0.0
-49.75 -11.75 0.0
-50.25 -11.75 0.0
-50.75 -11.75 0.0
-51.25 -11.75 0.0
-51.75 -11.75 0.0
-52.25 -11.75 0.0
-52.75 -11.75 0.0
-53.25 -11.75 0.0
-53.75 -11.75 0.0
-54.25 -11.75 0.0
-54.75 -11.75 0.0
-55.25 -11.75 0.0
-55.75 -11.75 0.0
-56.25 -11.75 0.0
-6.25 -12.25 0.0
-6.75 -12.25 0.0
-7.25 -12.25 0.0
-7.75 -12.25 0.0
-8.25 -12.25 0.0
-8.75 -12.25 0.0
-9.25 -12.25 0.0
-9.75 -12.25 0.0
-10.25 -12.25 0.0
-10.75 -12.25 0.0
-11.25 -12.25 0.0
-11.75 -12.25 0.0
-12.25 -12.25 0.0
-12.75 -12.25 0.0
-13.25 -12.25 0.0
-13.75 -12.25 0.0
-14.25 -12.25 0.0
-14.75 -12.25 0.0
-15.25 -12.25 0.0
-15.75 -12.25 0.0
-16.25 -12.25 0.0
-16.75 -12.25 0.0
-17.25 -12.25 0.0
-17.75 -12.25 0.0
-18.25 -12.25 0.0
-18.75 -12.25 0.0
-19.25 -12.25 0.0
-19.75 -12.25 0.0
-20.25 -12.25 0.0
-20.75 -12.25 0.0
-21.25 -12.25 0.0
-21.75 -12.25 0.0
-22.25 -12.25 0.0
-22.75 -12.25 0.0
-23.25 -12.25 0.0
-23.75 -12.25 0.0
-24.25 -12.25 0.0
-24.75 -12.25 0.0
-25.25 -12.25 0.0
-25.75 -12.25 0.0
-26.25 -12.25 0.0
-26.75 -12.25 0.0
-27.25 -12.25 0.0
-27.75 -12.25 0.0
-28.25 -12.25 0.0
-28.75 -12.25 0.0
-29.25 -12.25 0.0
-29.75 -12.25 0.0
-30.25 -12.25 0.0
-30.75 -12.25 0.0
-31.25 -12.25 0.0
-31.75 -12.25 0.0
-32.25 -12.25 0.0
-32.75 -12.25 0.0
-33.25 -12.25 0.0
-33.75 -12.25 0.0
-34.25 -12.25 0.0
-34.75 -12.25 0.0
-35.25 -12.25 0.0
-35.75 -12.25 0.0
-36.25 -12.25 0.0
-36.75 -12.25 0.0
-37.25 -12.25 0.0
-37.75 -12.25 0.0
-38.25 -12.25 0.0
-38.75 -12.25 0.0
-39.25 -12.25 0.0
-39.75 -12.25 0.0
-40.25 -12.25 0.0
-40.75 -12.25 0.0
-41.25 -12.25 0.0
-41.75 -12.25 0.0
-42.25 -12.25 0.0
-42.75 -12.25 0.0
-43.25 -12.25 0.0
-43.75 -12.25 0.0
-44.25 -12.25 0.0
-44.75 -12.25 0.0
-45.25 -12.25 0.0
-45.75 -12.25 0.0
-46.25 -12.25 0.0
-46.75 -12.25 0.0
-47.25 -12.25 0.0
-47.75 -12.25 0.0
-48.25 -12.25 0.0
-48.75 -12.25 0.0
-49.25 -12.25 0.0
-49.75 -12.25 0.0
-50.25 -12.25 0.0
-50.75 -12.25 0.0
-51.25 -12.25 0.0
-51.75 -12.25 0.0
-52.25 -12.25 0.0
-52.75 -12.25 0.0
-53.25 -12.25 0.0
-53.75 -12.25 0.0
-54.25 -12.25 0.0
-54.75 -12.25 0.0
-55.25 -12.25 0.0
-55.75 -12.25 0.0
-56.25 -12.25 0.0
-6.25 -12.75 0.0
-6.75 -12.75 0.0
-7.25 -12.75 0.0
-7.75 -12.75 0.0
-8.25 -12.75 0.0
-8.75 -12.75 0.0
-9.25 -12.75 0.0
-9.75 -12.75 0.0
-10.25 -12.75 0.0
-10.75 -12.75 0.0
-11.25 -12.75 0.0
-11.75 -12.75 0.0
-12.25 -12.75 0.0
-12.75 -12.75 0.0
-13.25 -12.75 0.0
-13.75 -12.75 0.0
-14.25 -12.75 0.0
-14.75 -12.75 0.0
-15.25 -12.75 0.0
-15.75 -12.75 0.0
-16.25 -12.75 0.0
-16.75 -12.75 0.0
-17.25 -12.75 0.0
-17.75 -12.75 0.0
-18.25 -12.75 0.0
-18.75 -12.75 0.0
-19.25 -12.75 0.0
-19.75 -12.75 0.0
-20.25 -12.75 0.0
-20.75 -12.75 0.0
-21.25 -12.75 0.0
-21.75 -12.75 0.0
-22.25 -12.75 0.0
-22.75 -12.75 0.0
-23.25 -12.75 0.0
-23.75 -12.75 0.0
-24.25 -12.75 0.0
-24.75 -12.75 0.0
-25.25 -12.75 0.0
-25.75 -12.75 0.0
-26.25 -12.75 0.0
-26.75 -12.75 0.0
-27.25 -12.75 0.0
-27.75 -12.75 0.0
-28.25 -12.75 0.0
-28.75 -12.75 0.0
-29.25 -12.75 0.0
-29.75 -12.75 0.0
-30.25 -12.75 0.0
-30.75 -12.75 0.0
-31.25 -12.75 0.0
-31.75 -12.75 0.0
-32.25 -12.75 0.0
-32.75 -12.75 0.0
-33.25 -12.75 0.0
-33.75 -12.75 0.0
-34.25 -12.75 0.0
-34.75 -12.75 0.0
-35.25 -12.75 0.0
-35.75 -12.75 0.0
-36.25 -12.75 0.0
-36.75 -12.75 0.0
-37.25 -12.75 0.0
-37.75 -12.75 0.0
-38.25 -12.75 0.0
-38.75 -12.75 0.0
-39.25 -12.75 0.0
-39.75 -12.75 0.0
-40.25 -12.75 0.0
-40.75 -12.75 0.0
-41.25 -12.75 0.0
-41.75 -12.75 0.0
-42.25 -12.75 0.0
-42.75 -12.75 0.0
-43.25 -12.75 0.0
-43.75 -12.75 0.0
-44.25 -12.75 0.0
-44.75 -12.75 0.0
-45.25 -12.75 0.0
-45.75 -12.75 0.0
-46.25 -12.75 0.0
-46.75 -12.75 0.0
-47.25 -12.75 0.0
-47.75 -12.75 0.0
-48.25 -12.75 0.0
-48.75 -12.75 0.0
-49.25 -12.75 0.0
-49.75 -12.75 0.0
-50.25 -12.75 0.0
-50.75 -12.75 0.0
-51.25 -12.75 0.0
-51.75 -12.75 0.0
-52.25 -12.75 0.0
-52.75 -12.75 0.0
-53.25 -12.75 0.0
-53.75 -12.75 0.0
-54.25 -12.75 0.0
-54.75 -12.75 0.0
-55.25 -12.75 0.0
-55.75 -12.75 0.0
-56.25 -12.75 0.0
-6.25 -13.25 0.0
-6.75 -13.25 0.0
-7.25 -13.25 0.0
-7.75 -13.25 0.0
-8.25 -13.25 0.0
-8.75 -13.25 0.0
-9.25 -13.25 0.0
-9.75 -13.25 0.0
-10.25 -13.25 0.0
-10.75 -13.25 0.0
-11.25 -13.25 0.0
-11.75 -13.25 0.0
-12.25 -13.25 0.0
-12.75 -13.25 0.0
-13.25 -13.25 0.0
-13.75 -13.25 0.0
-14.25 -13.25 0.0
-14.75 -13.25 0.0
-15.25 -13.25 0.0
-15.75 -13.25 0.0
-16.25 -13.25 0.0
-16.75 -13.25 0.0
-17.25 -13.25 0.0
-17.75 -13.25 0.0
-18.25 -13.25 0.0
-18.75 -13.25 0.0
-19.25 -13.25 0.0
-19.75 -13.25 0.0
-20.25 -13.25 0.0
-20.75 -13.25 0.0
-21.25 -13.25 0.0
-21.75 -13.25 0.0
-22.25 -13.25 0.0
-22.75 -13.25 0.0
-23.25 -13.25 0.0
-23.75 -13.25 0.0
-24.25 -13.25 0.0
-24.75 -13.25 0.0
-25.25 -13.25 0.0
-25.75 -13.25 0.0
-26.25 -13.25 0.0
-26.75 -13.25 0.0
-27.25 -13.25 0.0
-27.75 -13.25 0.0
-28.25 -13.25 0.0
-28.75 -13.25 0.0
-29.25 -13.25 0.0
-29.75 -13.25 0.0
-30.25 -13.25 0.0
-30.75 -13.25 0.0
-31.25 -13.25 0.0
-31.75 -13.25 0.0
-32.25 -13.25 0.0
-32.75 -13.25 0.0
-33.25 -13.25 0.0
-33.75 -13.25 0.0
-34.25 -13.25 0.0
-34.75 -13.25 0.0
-35.25 -13.25 0.0
-35.75 -13.25 0.0
-36.25 -13.25 0.0
-36.75 -13.25 0.0
-37.25 -13.25 0.0
-37.75 -13.25 0.0
-38.25 -13.25 0.0
-38.75 -13.25 0.0
-39.25 -13.25 0.0
-39.75 -13.25 0.0
-40.25 -13.25 0.0
-40.75 -13.25 0.0
-41.25 -13.25 0.0
-41.75 -13.25 0.0
-42.25 -13.25 0.0
-42.75 -13.25 0.0
-43.25 -13.25 0.0
-43.75 -13.25 0.0
-44.25 -13.25 0.0
-44.75 -13.25 0.0
-45.25 -13.25 0.0
-45.75 -13.25 0.0
-46.25 -13.25 0.0
-46.75 -13.25 0.0
-47.25 -13.25 0.0
-47.75 -13.25 0.0
-48.25 -13.25 0.0
-48.75 -13.25 0.0
-49.25 -13.25 0.0
-49.75 -13.25 0.0
-50.25 -13.25 0.0
-50.75 -13.25 0.0
-51.25 -13.25 0.0
-51.75 -13.25 0.0
-52.25 -13.25 0.0
-52.75 -13.25 0.0
-53.25 -13.25 0.0
-53.75 -13.25 0.0
-54.25 -13.25 0.0
-54.75 -13.25 0.0
-55.25 -13.25 0.0
-55.75 -13.25 0.0
-56.25 -13.25 0.0
-6.25 -13.75 0.0
-6.75 -13.75 0.0
-7.25 -13.75 0.0
-7.75 -13.75 0.0
-8.25 -13.75 0.0
-8.75 -13.75 0.0
-9.25 -13.75 0.0
-9.75 -13.75 0.0
-10.25 -13.75 0.0
-10.75 -13.75 0.0
-11.25 -13.75 0.0
-11.75 -13.75 0.0
-12.25 -13.75 0.0
-12.75 -13.75 0.0
-13.25 -13.75 0.0
-13.75 -13.75 0.0
-14.25 -13.75 0.0
-14.75 -13.75 0.0
-15.25 -13.75 0.0
-15.75 -13.75 0.0
-16.25 -13.75 0.0
-16.75 -13.75 0.0
-17.25 -13.75 0.0
-17.75 -13.75 0.0
-18.25 -13.75 0.0
-18.75 -13.75 0.0
-19.25 -13.75 0.0
-19.75 -13.75 0.0
-20.25 -13.75 0.0
-20.75 -13.75 0.0
-21.25 -13.75 0.0
-21.75 -13.75 0.0
-22.25 -13.75 0.0
-22.75 -13.75 0.0
-23.25 -13.75 0.0
-23.75 -13.75 0.0
-24.25 -13.75 0.0
-24.75 -13.75 0.0
-25.25 -13.75 0.0
-25.75 -13.75 0.0
-26.25 -13.75 0.0
-26.75 -13.75 0.0
-27.25 -13.75 0.0
-27.75 -13.75 0.0
-28.25 -13.75 0.0
-28.75 -13.75 0.0
-29.25 -13.75 0.0
-29.75 -13.75 0.0
[...]
CELL_DATA 4000 
FIELD FieldData  1
stress_iload_1 1 4000 float 
1.7802257532147276 
2.842941236136345 
0.9693710644761325 
0.5693498223628244 
0.8559641775353412 
0.5076677964498968 
0.7289674123249064 
0.4598163812996498 
0.6363421796733452 
0.435459863550133 
0.5838828866510655 
0.43516043037588575 
0.5640565163903188 
0.45074919381999373 
0.5681621708812021 
0.4765630440795825 
0.5892001943258157 
0.5094804424334414 
0.6220794414987006 
0.5476681513989837 
0.6632149481787042 
0.5898799078146691 
0.710100246987227 
0.6351726398040509 
0.7609808164679867 
0.6828018201784584 
0.8146259555995458 
0.7321780252698219 
0.8701722845707573 
0.7828408709629472 
0.9270156020450713 
0.8344372599677979 
0.9847351411896964 
0.8867013573290653 
1.0430399031799382 
0.9394364967245061 
1.101730371840308 
0.9924995274094209 
1.160671144323198 
1.0457878214910583 
1.219771401897636 
1.0992288558411822 
1.2789710423723737 
1.1527720923380782 
1.3382309018192216 
1.2063827975326058 
1.3975259191738587 
1.260037432922823 
1.4568404053269537 
1.3137202775605774 
1.5161648048545089 
1.367420993297612 
1.5754935063492586 
1.4211328958626066 
1.6348233816564084 
1.4748517447602858 
1.6941528259601122 
1.52857490822816 
1.753481137768165 
1.5823007951957906 
1.8128081264451328 
1.6360284745512985 
1.8721338698260372 
1.6897574239627944 
1.9314585691765012 
1.7434873670299937 
1.9907824660881888 
1.7972181698053453 
2.050105797895294 
1.8509497766128424 
2.1094287763867756 
1.9046821714685316 
2.168751580113145 
1.9584153558915784 
2.228074354249221 
2.0121493370099883 
2.2873972143646455 
2.065884122008674 
2.346720251986638 
2.119619716395345 
2.4060435408157836 
2.1733561245230617 
2.465367143030191 
2.227093351438009 
2.5246911154822964 
2.280831405512015 
2.584015515766346 
2.334570301582813 
2.643340408268801 
2.3883100644600352 
2.7026658703315913 
2.4420507327567247 
2.761991998681213 
2.4957923630257453 
2.821318916249653 
2.549535034201469 
2.8806467794750925 
2.6032788523072896 
2.9399757861018285 
2.6570239553556734 
2.9993061834105488 
2.710770518279347 
3.058638276668632 
2.764518757630774 
3.1179724374248288 
2.8182689356284136 
3.1773091110092926 
2.8720213629328235 
3.236648822274719 
2.925776399263969 
3.295992178151994 
2.97953445062641 
3.3553398649995714 
3.033295961454883 
3.4146926379273803 
3.087061399431371 
3.47405129823832 
3.1408312300107855 
3.5334166538144394 
3.194605876823804 
3.5927894555887327 
3.2483856630829693 
3.652170301166624 
3.3021707279166224 
3.7115594941454395 
3.3559609102029353 
3.770956844710494 
3.409755591097579 
3.830361393784309 
3.463553485157279 
3.8897710395245024 
3.5173523691072135 
3.9491820418041237 
3.5711487373411894 
4.008588378242375 
3.624937375014779 
4.0679809257986035 
3.6787108443488994 
4.127346447201318 
3.732458889452634 
4.186666375219392 
3.7861677824822846 
4.245915415667339 
3.839819663554475 
4.3050600406575485 
3.893391974627411 
4.364057029672935 
3.946857162253611 
4.422852356013799 
4.000182937740002 
4.481380936384913 
4.0533335523111695 
4.5395680986936675 
4.1062727914085615 
4.597334128186731 
4.158969745173925 
4.654603993483024 
4.211408908386202 
4.711325423680266 
4.263606848507245 
4.767500028119237 
4.315638609775837 
4.823234287418006 
4.367678256304161 
4.878820231136076 
4.4200595608227955 
4.934859804452456 
4.473364867348193 
4.992452889914929 
4.528552595417963 
5.0534777268939335 
4.587136575509604 
5.121006059859607 
4.65143293413399 
5.199917790815887 
4.7248912748603535 
5.2978196643485544 
4.812523130377154 
5.426447764118754 
4.921424155168695 
5.603884724315498 
5.061338906999749 
5.858242048615585 
5.245097529247076 
6.234161371208082 
5.488476759228139 
6.8050649785531965 
5.8084407375119005 
7.697498393094953 
6.217547567359262 
9.140213056988474 
6.710411393500184 
11.556918617527895 
7.236656936501646 
15.705619206001664 
7.66216266387978 
22.781374206406632 
7.779920521353829 
35.938758979920195 
7.908281982187462 
1.4659756409105735 
2.0588335178523143 
0.6691454551219668 
0.8176295214205516 
0.33129822079975435 
0.18807830430859612 
0.34021956433797945 
0.13743042290899254 
0.3808998726771787 
0.20107720803601878 
0.4134034671569738 
0.26164043845440355 
0.4446757196514087 
0.3181159308827663 
0.4787870826027484 
0.37121403755438687 
0.5166469753186418 
0.4215897809771565 
0.5579532945467578 
0.4700271681934675 
0.602102446688781 
0.5172509422531854 
0.64849724015649 
0.5638186126078788 
0.6966274326803165 
0.6101086923169504 
0.746079049124178 
0.6563528763911698 
0.796524652044964 
0.7026779102670128 
0.8477098280611411 
0.7491423030720474 
0.8994399602376048 
0.795763739826151 
0.9515683377476513 
0.842537663829483 
1.0039858817662324 
0.8894489765740334 
1.0566125299691493 
0.936478907040506 
1.109390204956829 
0.9836087264004091 
1.1622772169317535 
1.0308215233769717 
1.2152439083634088 
1.0781028579919465 
1.2682693341413651 
1.1254408134827538 
1.3213387776845258 
1.1728257602190746 
1.3744419236376582 
1.2202500109515266 
1.427571534176873 
1.267707462937407 
1.4807225036774725 
1.3151932725665656 
1.5338911924382925 
1.3627035798890945 
1.5870749628465768 
1.4102352854795874 
1.6402718601655308 
1.4577858749659822 
1.6934803952046924 
1.5053532838318855 
1.7466993978003111 
1.5529357947046274 
1.79992791891255 
1.6005319600255972 
1.8531651656979014 
1.6481405441473236 
1.9064104587142359 
1.6957604800401025 
1.9596632038314497 
1.743390836902829 
2.012922873842856 
1.7910307958407836 
2.0661889964540494 
1.838679631527065 
2.1194611464690185 
1.8863366982997865 
2.1727389407756923 
1.9340014195887432 
2.2260220352549402 
1.9816732798593721 
2.2793101230651556 
2.0293518185179167 
2.3326029339876144 
2.0770366253494403 
2.3859002346346694 
2.1247273372067386 
2.439201829419434 
2.17242363571732 
2.4925075622063395 
2.220125245841533 
2.54581731858243 
2.2678319351211083 
2.599131028653493 
2.3155435134696534 
2.652448670236177 
2.363259833322567 
2.705770272228113 
2.4109807899393063 
2.759095917835736 
2.458706321564212 
2.8124257471751255 
2.5064364090796216 
2.865759958557097 
2.554171074643152 
2.9190988074880226 
2.6019103786543756 
2.9724426020542754 
2.6496544141806737 
3.0257916928896385 
2.6974032977307356 
3.07914645533956 
2.7451571549500797 
3.1325072606957063 
2.7929160994690876 
3.1858744324821693 
2.840680202710281 
3.2392481827006 
2.8884494520321855 
3.2926285217198554 
2.9362236941125825 
3.346015134133534 
2.9840025600655453 
3.399407211541368 
3.031785368462397 
3.452803231979726 
3.079571002373487 
3.5062006750001693 
3.127357756900982 
3.5595956616873616 
3.1751431547874547 
3.6129825111106078 
3.222923729923277 
3.6663532101745457 
3.2706947826019803 
3.7196968046513113 
3.3184501169913516 
3.772998738404835 
3.3661817816969313 
3.8262401999708695 
3.4138798500043706 
3.8793975871363524 
3.461532299480165 
3.932442280015101 
3.509125083582423 
3.985341033780182 
3.556642533967949 
4.038057480554925 
3.6040682948044824 
4.090555488420556 
3.651387073411931 
4.142805493517381 
3.6985875981828693 
4.194795437106884 
3.745667306403207 
4.246548653350113 
3.792639438169966 
4.298152032735548 
3.8395433755815054 
4.349799126198083 
3.8864592073601645 
4.4018547033685405 
3.933527550217068 
4.454949882853072 
3.9809754811615634 
4.510120758137951 
4.029148755568717 
4.569009275876868 
4.078548770186522 
4.634154512725419 
4.129868952812352 
4.709418158514238 
4.184017489044643 
4.800614299765512 
4.2420980061243405 
4.91645569972577 
4.3052909399522905 
5.069985670393575 
4.374526352070907 
5.28069831991513 
4.449752313789536 
5.577378382157995 
4.52847671891983 
6.000677282584681 
4.603124820303916 
6.60076092210946 
4.656732322354601 
7.414750241586843 
4.656803561990297 
8.383125959064378 
4.547535548723272 
9.116251163879632 
4.2378883571822055 
8.487555547894582 
3.5843937781220827 
8.364756793388468 
2.883735750596821 
1.1302703365667202 
1.5325937318327794 
0.7170544731782136 
0.857117292956414 
0.42657612314884996 
0.4050305629644031 
0.27132179885894475 
0.181127331473493 
0.256578876180433 
0.13292863691153878 
0.2991935024908273 
0.1759122753013299 
0.351700801314489 
0.23845207609262692 
0.40351334685916235 
0.3002885588247148 
0.4533301912546923 
0.35768714385460204 
0.5014760660585307 
0.41048210312156985 
0.5484569094622945 
0.45942864784802157 
0.5947035164923975 
0.5054465175359462 
0.6405374732425756 
0.5493647137827533 
0.6861822933217256 
0.5918479494948049 
0.7317839073245702 
0.6333951605376259 
0.7774311689211513 
0.6743641990547466 
0.8231732943669677 
0.7150025944545695 
0.8690334022343349 
0.7554760329026085 
0.9150183560862472 
0.795891726462429 
0.9611255463023416 
0.8363163402634742 
1.0073473441517848 
0.8767891516469862 
1.0536738911464607 
0.917331404170111 
1.100094754914749 
0.9579527893817978 
1.1465998458216695 
0.9986558405640921 
1.1931798711775468 
1.0394388499437692 
1.239826513067813 
1.0802977645016179 
1.2865324501340198 
1.1212273883807058 
1.3332912982746299 
1.1622221227559364 
1.3800975151744932 
1.2032764025520846 
1.4269462942661417 
1.2443849383317602 
1.4738334617660551 
1.285542835813942 
1.5207553832647855 
1.326745640821039 
1.5677088822437573 
1.3679893406241255 
1.614691170668529 
1.4092703414154855 
1.6616997907420499 
1.450585434153926 
1.7087325664309863 
1.491931756180646 
1.7557875633227407 
1.5333067528511963 
1.8028630554378626 
1.5747081414866229 
1.8499574978167035 
1.616133878711396 
1.8970695038587813 
1.6575821315545802 
1.9441978266004851 
1.6990512522646215 
1.9913413432456095 
1.7405397565927532 
2.038499042429991 
1.7820463051915845 
2.085670013771481 
1.823569687767217 
2.1328534393675884 
1.8651088096113857 
2.1800485869435584 
1.9066626801851254 
2.227254804406017 
1.948230403438597 
2.2744715155652315 
1.989811169596998 
2.3216982167973206 
2.0314042481448125 
2.3689344743853877 
2.073008981769009 
2.416179922250154 
2.114624781011008 
2.4634342596871406 
2.156251119380996 
2.510697248645161 
2.1978875286528563 
2.5579687099305377 
2.2395335940447585 
2.605248517548376 
2.281188948938568 
2.6525365901589226 
2.32285326875294 
2.699832878352466 
2.3645262635316415 
2.747137346097137 
2.4062076687637637 
2.7944499443271194 
2.4478972339071916 
2.8417705741712505 
2.4895947080751095 
2.8890990368416 
2.5312998223380547 
2.936434966691765 
2.5730122681564427 
2.9837777435148043 
2.614731671543052 
3.031126379838257 
2.6564575627218416 
3.078479378984446 
2.698189341232345 
3.1258345601919943 
2.7399262366344113 
3.1731888485392945 
2.781667265053486 
3.2205380302425697 
2.8234111816023413 
3.2678764789021133 
2.8651564278425825 
3.315196866431687 
2.906901071298714 
3.362489885161088 
2.9486427295829665 
3.4097440267800545 
2.990378463301102 
3.456945491858839 
3.0321046070418785 
3.5040783436208804 
3.0738164825296406 
3.551125075218348 
3.1155078966523235 
3.598067835298896 
3.1571702610994508 
3.644890657258683 
3.198791067591679 
3.6915831691872882 
3.2403512961154965 
3.738146431909427 
3.2818210997970008 
3.7846017738193893 
3.3231527679516373 
3.8310037864641884 
3.3642694784130565 
3.8774590622223966 
3.4050476624015906 
3.924152896762017 
3.445289863538125 
3.9713872502081293 
3.4846837190950453 
4.019635150231617 
3.52274107980409 
4.069620083500526 
3.5587093097864853 
4.122434664095797 
3.5914445771649666 
4.179721606773249 
3.619234844325158 
4.243949761428803 
3.639559356101025 
4.3188163104751505 
3.6487743182511143 
4.409748487291883 
3.6417269829828687 
4.524233813299577 
3.611333623637715 
4.670958170272998 
3.5482252205338463 
4.854862133902058 
3.440657287904115 
5.061485839885075 
3.2748254291696854 
5.218500204549239 
3.0347373666864526 
5.119440506071446 
2.6966004096289207 
4.327163984914279 
2.2039969075248065 
2.710945186924213 
1.4486477050821314 
6.209193161464239 
1.580874356706057 
0.8963391622722954 
1.162972260434968 
0.6785131835244634 
0.787674641648489 
0.5162839989785816 
0.5106879040890795 
0.3913294261726546 
0.3458876963462919 
0.3217506711453394 
0.26849822540202933 
0.3106850684618753 
0.24838574115625828 
0.33634851337078236 
0.2645597262509862 
0.3774017467524057 
0.2999104905126229 
0.42283098478451636 
0.3424173987659452 
0.4683525310818721 
0.38594180854316895 
0.5126248462372639 
0.4280323360994888 
0.5554484057169489 
0.4680297313065739 
0.5970252490653507 
0.506036108897784 
0.6376608962825889 
0.5424216976419938 
0.6776484193925915 
0.577603428917168 
0.7172293870322876 
0.6119545416039797 
0.7565872297926347 
0.6457757833100827 
0.7958533785837855 
0.6792942115714744 
0.8351173409890861 
0.7126729931982156 
0.8744368634962005 
0.7460242729935018 
0.9138466854223751 
0.7794215526656344 
0.9533654934517419 
0.8129102066882291 
0.993001169850033 
0.846515818813316 
1.0327546068738505 
0.8802504946832787 
1.072622394764011 
0.9141174801255216 
1.1125986631958886 
0.9481144443321738 
1.1526763070142185 
0.9822357532830644 
1.1928477760023122 
1.0164740027127552 
1.2331055632262329 
1.0508210218019605 
1.273442489824397 
1.0852685070766874 
1.3138518557040024 
1.1198084036315532 
1.3543275044668992 
1.1544331176577831 
1.394863835459725 
1.1891356193074933 
1.4354557849342127 
1.2239094765396157 
1.4760987906202816 
1.2587488474150723 
1.516788748817298 
1.2936484489724047 
1.5575219695486788 
1.3286035143882127 
1.5982951330334698 
1.3636097457103842 
1.6391052491963478 
1.3986632665439287 
1.6799496210252027 
1.4337605771263051 
1.7208258119951845 
1.4688985130357184 
1.7617316174659448 
1.5040742079947798 
1.8026650397694701 
1.5392850608070596 
1.8436242666434464 
1.5745287061965034 
1.8846076526217235 
1.6098029892174135 
1.9256137030142957 
1.645105942841824 
1.9666410601090667 
1.6804357683382642 
2.007688491262156 
1.7157908180720194 
2.048754878538645 
1.75116958040467 
2.08983920958929 
1.7865706663970566 
2.1309405694223735 
1.8219927980838635 
2.1720581327251076 
1.8574347981163861 
2.213191156338341 
1.892895580645281 
2.25433897145176 
1.928374143364349 
2.2955009750083213 
1.963869560721125 
2.3366766197391318 
1.999380978397622 
2.3778654021511154 
2.0349076092937377 
2.4190668477078265 
2.070448731408144 
2.4602804923392916 
2.1060036882218025 
2.5015058593578248 
2.1415718924338023 
2.542742430795251 
2.1771528341981004 
2.583989612202061 
2.212746095302752 
2.625246690016302 
2.2483513710000316 
2.666512780810991 
2.2839685012933093 
2.707786772025692 
2.3195975132509288 
2.7490672542427648 
2.355238674983545 
2.7903524456034687 
2.3908925597694988 
2.831640109525178 
2.426560114545157 
2.872927467225064 
2.462242719280594 
2.914211106278626 
2.4979422105412272 
2.955486884759337 
2.533660820775675 
2.996749826119948 
2.569400950076684 
3.0379939907435727 
2.6051646329308524 
3.079212292661677 
2.6409524797435124 
3.120396199248828 
2.6767617492742657 
3.1615352004908277 
2.712583026771561 
3.2026158528258346 
2.7483947218572644 
3.2436200784983913 
2.784154233073056 
3.284522222386749 
2.8197841212874843 
3.3252841270179885 
2.8551509601132405 
3.3658471925566484 
2.890033664541099 
3.4061200913663887 
2.9240770416164814 
3.4459606341189515 
2.9567251211470977 
3.4851504977249492 
2.9871276909154854 
3.5233625740395462 
3.0140127800929855 
3.560123202247503 
3.035518393694699 
3.5947759885831108 
3.0489800475155113 
3.6264594539291775 
3.050679139530956 
3.6541117434426726 
3.0355752813092534 
3.6764928133029984 
2.997080568484994 
3.6921155470980693 
2.926996234116148 
3.698683068407388 
2.8158349810516072 
3.6909264938044393 
2.6538956491463304 
3.6544050852573595 
2.4335632131695886 
3.5511263841364524 
2.1529812498135343 
3.2927783150284093 
1.8190422749730626 
2.7067351061139435 
1.4399458320586578 
1.5896066466822225 
0.9849305531474497 
1.7140944332891395 
0.412641962247318 
5.188124618965199 
1.569580682766761 
0.7200613781713007 
0.8930084970387879 
0.6143574457619835 
0.686250435689078 
0.542759883934419 
0.5355880739468725 
0.47668585087196064 
0.44144986335418324 
0.42203334631516576 
0.38675101514255644 
0.3916266659125108 
0.357677268168292 
0.38803163667214446 
0.34855428884011236 
0.404432513542939 
0.35565807971073937 
0.43221323394022115 
0.37408335422494166 
0.4651619087047511 
0.3988935433226414 
0.499821592633878 
0.42649500419475717 
0.5345723811601828 
0.4548087660754151 
0.5687981456866347 
0.48285065396320614 
0.6023716599055265 
0.5102794945499214 
0.6353760425386795 
0.5370808474897908 
0.6679645116922001 
0.5633799161791861 
0.7002947790389138 
0.5893418076565333 
0.7325020611443044 
0.6151236904052453 
0.764691230368092 
0.6408555601079171 
0.7969378005056251 
0.6666357258896652 
0.8292924225754656 
0.6925331717170355 
0.8617862497146043 
0.7185925625119122 
0.8944359607464869 
0.7448397453596972 
0.9272479770855826 
0.7712867564979176 
0.9602217785045317 
0.797935967122074 
0.9933523921088631 
0.8247833158816792 
1.0266321917345662 
0.8518207193780566 
1.060052154895517 
0.8790378035369146 
1.0936027104506556 
0.9064231038175214 
1.127274287525054 
0.9339648664211717 
1.1610576526491112 
0.9616515594300359 
1.1949441008952562 
0.9894721792356176 
1.2289255493242661 
1.017416416607041 
1.2629945672535676 
1.0454747295156053 
1.297144367442032 
1.0736383562595218 
1.3313687745812695 
1.101899292237336 
1.36566218197247 
1.1302502461508037 
1.4000195033623548 
1.1586845860723567 
1.4344361242602788 
1.1871962819878643 
1.4689078552398496 
1.2157798488700613 
1.5034308885764827 
1.244430292582551 
1.5380017587945314 
1.2731430597990223 
1.5726173072590284 
1.3019139923931753 
1.6072746506617945 
1.330739286344172 
1.6419711531206909 
1.3596154549332997 
1.6767044015344899 
1.3885392959205307 
1.7114721838154827 
1.4175078623059962 
1.7462724696280483 
1.4465184363264625 
1.7811033932833147 
1.4755685063450743 
1.815963238453507 
1.5046557463752435 
1.8508504244088624 
1.5337779980377075 
1.8857634934920018 
1.5629332548658876 
1.9207010995895941 
1.5921196489671077 
1.9556619973830118 
1.6213354402169664 
1.9906450322104463 
1.6505790083076979 
2.025649130427258 
1.6798488482121534 
2.060673290240476 
1.7091435698702162 
2.095716573101008 
1.7384619032347493 
2.130778095896632 
1.7678027101692562 
2.1658570243834894 
1.7971650051217891 
2.2009525685469344 
1.8265479868971488 
2.2360639808513163 
1.855951084236341 
2.271190558612723 
1.8853740180584062 
2.306331651896094 
1.9148168830012366 
2.3414866782623682 
1.9442802498620257 
2.376655145066941 
1.973765288145264 
2.4118366783771323 
2.003273903212111 
2.447031054145478 
2.032808874101192 
2.482238220836796 
2.0623739637916456 
2.517458291343119 
2.091973950428226 
2.5526914628945745 
2.121614491262209 
2.5879377925294307 
2.1513016744417044 
2.623196706414239 
2.1810410283996124 
2.6584660452220055 
2.210835632433813 
2.6937403331100396 
2.2406827892645462 
2.7290077890275626 
2.2705684607372816 
2.7642453571157586 
2.3004583070987645 
2.799410696689322 
2.3302836815616206 
2.834429623128451 
2.359920290108771 
2.869176922870863 
2.389156418031219 
2.9034478042945233 
2.4176466659850417 
2.936916582055838 
2.4448461100605616 
2.969078730187622 
2.4699189059835422 
2.9991725597989527 
2.491615019942424 
3.026078083661915 
2.5081097817318847 
3.0481938952634535 
2.516804715692327 
3.063298698990573 
2.514096945971754 
3.06841175323908 
2.4951421493092383 
3.0596710566213168 
2.4536683904243164 
3.032234399252099 
2.3819541190560907 
2.9801393264632483 
2.2711764219219943 
2.895859754377787 
2.11248467686811 
2.7688637543245274 
1.8993853895112074 
2.581789503035574 
1.6323449385819362 
2.302466608178995 
1.32670110718198 
1.8726483300642585 
1.0228470593276402 
1.2165040781284309 
0.7809649423362319 
0.6830880638953606 
0.6127022269135 
2.015311084661942 
0.5930402730375879 
4.131226197468935 
1.5749839904846965 
0.5745450527421807 
0.6835611367732537 
0.5438601421287196 
0.5808630374961785 
0.5380702098183627 
0.5225194307735171 
0.5223259051948456 
0.4903002072279124 
0.4967372594228399 
0.46755311032619357 
0.47274783357977435 
0.4485447373436254 
0.4592275368419406 
0.434510054828617 